gitlab/chiemotono/mdcontactcom
gitlab/pyFBS/pyFBS
gitlab/cosmograil/PyCS3
gitlab/cosmograil/starred
gitlab/mcfrith/last
gitlab/mcfrith/paraclu
gitlab/mcfrith/lamassemble
gitlab/mcfrith/tantan
gitlab/paulklemm_PHD/proteinortho
gitlab/emd-dev/emd
gitlab/random-quintessence/random-quintessence
gitlab/gmamon/MAMPOSSt
gitlab/ezlab/busco
gitlab/cracklet/cracklet
gitlab/ProjectRHEA/flowsolverrhea
gitlab/octopus-code/octopus
gitlab/JuditGG/trumpetplots
gitlab/andrea-tango/ficos
gitlab/picos-api/picos
gitlab/sissopp_developers/sissopp
gitlab/libreumg/dataquier
gitlab/metafundev/metafun
gitlab/ztzou/phydl
gitlab/BioimageInformaticsGroup/openphi
gitlab/LouisLab/PiVR
gitlab/ags-data-format-wg/ags-python-library
gitlab/pipe3d/pyPipe3D
gitlab/joseaher/astroplotlib
gitlab/aegge/comet-emu
gitlab/eleonoraalei/exo-mercat-gui
gitlab/Molcas/OpenMolcas
gitlab/bu_cnio/vulcanspot
gitlab/thartwig/asloth
gitlab/mobse/source-code
gitlab/ffaucher/hawen
gitlab/InspectorCell/inspectorcell
gitlab/gims-developers/gims
gitlab/astron-idg/idg
gitlab/moerman1/fhi-cc4s
gitlab/etienne.behar/menura
gitlab/multigris/mgris
gitlab/RKIBioinformaticsPipelines/QCumber
gitlab/petsc/petsc
gitlab/rki_bioinformatics/purple
gitlab/rki_bioinformatics/IDeFIX
gitlab/rki_bioinformatics/HiLive2
gitlab/eduardo-vitral/balrogo
gitlab/vibes-developers/vibes
gitlab/AstroVian/bmarxiv
gitlab/jesseds/apav
gitlab/project-dare/dare-platform
gitlab/ostrokach/proteinsolver
gitlab/pvst/asi
gitlab/magnumpi/magnumpi
gitlab/gpagano/lensinggw
gitlab/permafrostnet/teaspoon
gitlab/ampere2/metalwalls
gitlab/binary_c/binary_c-python
gitlab/remram44/taguette
gitlab/jason-rumengan/pyarma
gitlab/esa/pyxel
gitlab/andreas.andrusch/paipline
gitlab/german.tischler/libmaus2
gitlab/german.tischler/biobambam2
gitlab/mbiagetti/persistent_homology_lss
gitlab/fibreglass/pivc
gitlab/dglaeser/fieldcompare
gitlab/sevecekp/sph
gitlab/souvlaki/thalassa
gitlab/cirad-apps/phylostems
gitlab/programgreg/tagginglatencyestimator
gitlab/mcfuman/SpectraPy
gitlab/fduchate/predihood
gitlab/mainlabwsu/bims
gitlab/imoralc/malu-ifs-visualization-tool
gitlab/treangenlab/emu
gitlab/treangenlab/vulcan
gitlab/ChemBioHub/tpmap
gitlab/ENKI-portal/ThermoCodegen
gitlab/ENKI-portal/ThermoEngine
gitlab/ENKI-portal/vaporock
gitlab/chrjan/seq-seq-pan
gitlab/remikz/nccmp
gitlab/clairedavies/sedbys
gitlab/loic.cg.rossi/pymiedap
gitlab/sigcorr/sigcorr
gitlab/jerrytheo16/exoplanet
gitlab/davidtourigny/dynamic-fba
gitlab/aroffringa/wsclean
gitlab/aroffringa/aoflagger
gitlab/vincent-sater/umigen
gitlab/chjordan/sslf
gitlab/leelamichaels/Burning_Arrow
gitlab/leelamichaels/Infinity
gitlab/leelamichaels/Elysium
gitlab/leelamichaels/Tranquillity
gitlab/leelamichaels/Omega
gitlab/casi-project/casi-3d
gitlab/casi-project/casi-2d
gitlab/dsbowen/conditional-inference
gitlab/aceteam.kaist/ACE-Molecule
gitlab/elsi_project/elsi_interface
gitlab/wpettersson/kep_solver
gitlab/geekysquirrel/bigx
gitlab/polmag/PORTA
gitlab/dalton/dalton
gitlab/sybreton/apollinaire
gitlab/mauricemolli/petitRADTRANS
github/rabrahm/zaspe
github/rabrahm/ceres
github/databio/GenomicDistributions
github/jiujiezz/tsnad
github/ester-project/ester
github/fastpm/fastpm
github/jakobherpich/pyICs
github/Someone789/galax2d
github/iipharma/pharmamind-molminer
github/valentineap/pyprop8
github/twopin/CAMP
github/kkjawz/coref-ee
github/williamjameshandley/anesthetic
github/williamjameshandley/fgivenx
github/barentsen/dave
github/barentsen/k2flix
github/PolymerGuy/recolo
github/ekaterinailin/AltaiPony
github/csbioinfopk/iSumoK-PseAAC
github/stillwater-sc/universal
github/evanoconnor/GR1D
github/wdecoster/nanoQC
github/wdecoster/nanolyse
github/wdecoster/nanofilt
github/wdecoster/nanocomp
github/wdecoster/NanoComp
github/wdecoster/nanopack
github/wdecoster/nanoget
github/wdecoster/NanoPlot
github/wdecoster/nanomath
github/wdecoster/chopper
github/wdecoster/nano-snakemake
github/wdecoster/nanostat
github/Valcin/BE_HaPPy
github/lsncibb/microbiomeGWAS
github/upb-lea/openmodelica-microgrid-gym
github/upb-lea/gym-electric-motor
github/cobilab/RFSC
github/hsci-r/finnish-media-scrapers
github/era-urban/wrfpy
github/gtw2i/GA-Galaxy
github/alvinxhan/Phydelity
github/Nextomics/nextsv
github/mosdef-hub/mbuild
github/mosdef-hub/foyer
github/aqlaboratory/openfold
github/husseinaluie/FlowSieve
github/EnsembleGovServices/kamodo-core
github/bioinfo-ut/GenomeTester4
github/bioinfo-ut/PlasmidSeeker
github/dcorre/otrain
github/ynop/audiomate
github/GabrielaCR/AGNfitter
github/nsoranzo/sspace_basic
github/riatelab/osrm
github/jdswinbank/Comet
github/adigenova/wengan
github/toddy15/medicalterms
github/pmoulos/metaseqR2
github/glotzerlab/hoomd-blue
github/glotzerlab/freud
github/glotzerlab/coxeter
github/scikit-learn/scikit-learn
github/sherpa-deproject/deproject
github/jGetMove/jGetMove
github/sundarjhu/2-DUST
github/facom/BHMcalc
github/facom/tidev
github/facom/exorings
github/kinnala/scikit-fem
github/geza-kovacs/tran_k2
github/IKNL/vantage6
github/gmarcais/Jellyfish
github/gmarcais/Quorum
github/mgieles/limepy
github/aothmane-control/Algebraic-differentiators
github/PyPO-dev/PyPO
github/SimonPfeifer/cows
github/ArnaudCassan/microlensing
github/fwhigh/stellar-locus-regression
github/esperlman/JetCurry
github/tolkit/telomeric-identifier
github/BioHPC/MegaD
github/astromb/PICsar2D
github/edgardomortiz/Captus
github/cosmo-ethz/hide
github/cosmo-ethz/seek
github/cosmo-ethz/CosmoHammer
github/DarkQuestCosmology/dark_emulator_public
github/Kuifje02/vrpy
github/nlesc-dirac/sagecal
github/Ge-Lab/USAT
github/tensorflow/tensorflow
github/ZhaiLab-SUSTech/FLEPSeq
github/single-cell-genetics/cellsnp-lite
github/maickrau/MBG
github/maickrau/GraphAligner
github/ocean-eddy-cpt/gcm-filters
github/leraman/Hopla
github/christopherburke/tess-point
github/iquasere/UPIMAPI
github/gmbrandt/xwavecal
github/gmbrandt/HTOF
github/spicy-oil/hfs_fit
github/bio-phys/BioEn
github/bruce-chappell/SunnyNet
github/hotokezaka/HeatingRate
github/popgenmethods/smcpp
github/Filter-Bubble/e2e-Dutch
github/Filter-Bubble/stroll
github/tbrown122387/pf
github/deezer/spleeter
github/dmey/synthia
github/spinicist/riesling
github/hcdenbakker/sepia
github/hcdenbakker/SalmID
github/natir/rustyread
github/natir/yacrd
github/pytorch/vision
github/parklab/LiRA
github/parklab/SCAN2
github/ideasrule/platon
github/JDabringhausen/BiPoS1
github/onnela-lab/beiwe-backend
github/ndrakos/ICICLE
github/dazhwu/pydynpd
github/Schulik/aiolos
github/LangeLab/SQuAPP
github/sdnjly/WSDL-AD
github/minkailin/stratsi
github/FSEC-Photovoltaics/pvrpm-lcoe
github/isoverse/isoreader
github/chrisaberson/BetterReg
github/XGI-MSU/PyIMRPhenomD
github/XGI-MSU/WDMWaveletTransforms
github/zheng-lh/UBER
github/bmvdgeijn/WASP
github/ericagol/TTVFaster
github/Pas-Kapli/mptp
github/byuflowlab/GXBeam.jl
github/BiomedSciAI/fuse-med-ml
github/VeinsOfTheEarth/rabpro
github/isakro/shoredate
github/vincentvaneylen/k2photometry
github/phenology/cgc
github/surf-eds/one-button-compute
github/lberaldoesilva/naif
github/rferdman/afr
github/jeffzhen/omnical
github/vprusso/toqito
github/sdss/marvin
github/mwhosek/extlaw_H18
github/JSB-UCLA/scPNMF
github/jamescasbon/PyVCF
github/debbiemarkslab/plmc
github/D-Crake/HEADSS
github/egpbos/barcode
github/CHRF-Genomics/Paratype
github/jbuisine/macop
github/pkestene/ramsesGPU
github/pkestene/xsmurf
github/cbrnr/sigviewer
github/timothydmorton/vespa
github/timothydmorton/isochrones
github/conchoecia/pauvre
github/MrMinimal64/multivar_horner
github/wpb-astro/MCSED
github/thejasvibr/bat_beamshapes
github/cgre-aachen/gemgis
github/GATB/bcalm
github/GATB/gatb-core
github/GATB/simka
github/GATB/MindTheGap
github/SebastianBocquet/pygtc
github/PhilippJunk/homelette
github/timstaley/amisurvey
github/timstaley/chimenea
github/timstaley/voevent-parse
github/theislab/anndata
github/theislab/scanpy
github/atomneb/AtomNeb-py
github/CosmoStat/shapepipe
github/CosmoStat/Glimpse
github/CosmoStat/score
github/CosmoStat/mccd
github/eScatter/pyelsepa
github/cjbarrie/academictwitteR
github/jczarnowski/DeepFactors
github/pavanvyn/triple-stability
github/jmsdsouzaPhD/GWDALI
github/JelfsMaterialsGroup/stk
github/jarvist/Julia-Phonons
github/gogrean/PyXel
github/amusecode/amuse
github/ketch/nodepy
github/ketch/RK-Opt
github/miRTop/mirtop
github/c3s-magic/c3s-magic-wps
github/DedalusProject/eigentools
github/kadyb/rgugik
github/MRCIEU/metaboprep
github/MRCIEU/PHESANT
github/cistib/origami
github/LoganAMorrison/Hazma
github/HenrykHaniewicz/PSRVoid
github/AusSRC/SoFiAX
github/icb-dcm/pyabc
github/tylertrimble/viswaternet
github/anuwu/DAGN-Blindtest
github/anuwu/GOTHIC
github/entangled/entangled
github/SwiftVISA/SwiftVISASwift
github/OpenGene/fastp
github/OpenGene/fastv
github/geospace-code/h5fortran
github/polca/unfold
github/JianjunTan-Beijing/LPI-CSFFR
github/callendeprieto/ferre
github/matthiasfabry/spinOS
github/lijing28101/maize_pyrpipe
github/mkelley/calviacat
github/mkelley/zchecker
github/karlotness/adrt
github/jeremiah-corrado/fem_2d
github/cancerit/alleleCount
github/OrlandoLam/SAMT
github/cl3425/Clairvoyance
github/RichardMoot/GrailLight
github/RichardMoot/LinearOne
github/hongli-ma/RNANetMotif
github/Washington-University/CiftiLib
github/fAndreuzzi/BisPy
github/pavanvidem/chira
github/sbraden/circle-craters
github/mrirecon/bart
github/mrirecon/view
github/flintproject/Flint
github/oschwengers/referenceseeker
github/oschwengers/platon
github/oschwengers/bakta
github/hillerlab/GenomeAlignmentTools
github/yangxiaolinyn/Lemon
github/AstraZeneca/kallisto
github/Substra/substra
github/johnschwenck/bp
github/zblz/naima
github/vojtech-sidorin/quickclump
github/mscroggs/symfem
github/IPK-BIT/divbrowse
github/cumbof/honto
github/fredstro/hilbertmodgroup
github/MaudeDavidLab/GMEmbeddings
github/Magritte-code/Magritte
github/ejhigson/nestcheck
github/ejhigson/perfectns
github/ejhigson/dyPolyChord
github/YuSugihara/MutMap
github/SSAGESproject/SSAGES
github/CGAL/cgal
github/VALENCE-software/VALENCE
github/VNNikolaidis/nnlib2Rcpp
github/NCAR/NCAR-Classic-Libraries-for-Geophysics
github/zd1/telseq
github/MoreiraLAB/mensadb-open
github/MoreiraLAB/or
github/cadop/seg1d
github/msaland/THInCR-Suite
github/smoh/kinesis
github/luizfelippesr/galmag
github/luizfelippesr/magnetizer
github/migp11/pyfastcore
github/bioexcel/biobb_wf_flexdyn
github/pni-lab/mlconfound
github/holmescao/ANTS_marking_and_analysis_tools
github/Dfupa/meTAline
github/ivastar/clear
github/elwinter/nnde
github/PENTACLE-Team/PENTACLE
github/rzellem/EXOTIC
github/lyf222/alpconv
github/fkiwy/unTimely_Catalog_explorer
github/fkiwy/Finder_charts
github/fkiwy/AstroToolBox
github/iopenshell/ezSpectrum
github/mdsteiner/EFAtools
github/SeaIce-Math/SubZero
github/exobssim/rapoc-public
github/azizka/IUCNN
github/BioGearsEngine/core
github/Hoecker-Lab/atligator
github/mlinderm/npsv
github/PNNL-m-q/mza
github/ylxu05/HN-PPISP
github/DrDaveShaw/INCHEM-Py
github/SJLeo/FFSD
github/flyaflya/causact
github/rudeboybert/forestecology
github/msm550/DMATIS
github/bommert/stabm
github/FitSNAP/FitSNAP
github/remi-adam/minot
github/peikuan/WBBC
github/surhh/nfitsview
github/javicarron/mtneedlet
github/pymedphys/pymedphys
github/mchalela/GriSPy
github/hsergi/Roman_Coronagraph_ETC
github/jonathanHuwP/CrystalGrowthTracker
github/Yomguithereal/talisman
github/caseyjlaw/tpipe
github/caseyjlaw/rtpipe
github/nutjunkie/IQmol
github/gsuissa/hardCORE
github/t-brandt/orvara
github/t-brandt/acorns-adi
github/grazianoucci/game
github/grazianoucci/cosmic_variance
github/quantling/pyndl
github/mariogrs/Simfast21
github/isovic/graphmap
github/fogellab/multiWGCNA
github/ashleefv/ACEInhibPKPD
github/firedrakeproject/gusto
github/firedrakeproject/firedrake
github/WangLabTHU/DeSP
github/simd-everywhere/simde
github/mcfrith/tandem-genotypes
github/mcfrith/dnarrange
github/faircloth-lab/phyluce
github/jbrakensiek/CORBITS
github/dawolfgang/MRrelation
github/carpyncho/carpyncho-py
github/ArgonneCPAC/diffmah
github/ArgonneCPAC/diffstar
github/ArgonneCPAC/dsps
github/jharno/cubep3m
github/ianfhunter/GNOLL
github/atakan/KeplerSolver
github/AlphonsG/Rainbow-Optical-Flow-For-ALI
github/vimc/dettl
github/vimc/orderly
github/vimc/vaultr
github/lime-rt/lime
github/AstrobioMike/GToTree
github/mbhall88/rasusa
github/NielsenBerkeleyLab/sconce
github/aymgal/COOLEST
github/thachnguyen/CRISPRnano
github/GeoffDuniam/FITS-Code-Examples
github/CMU-SAFARI/BLEND
github/mofanv/darknetz
github/vgteam/vg
github/vgteam/vg#vg
github/nikhilroxtomar/FANet
github/BioMeCIS-Lab/OpenOmics
github/galkintool/galkin
github/wangjun1996/VisFeature
github/MegaMorph/galapagos-c
github/thetisproject/thetis
github/AllenInstitute/bmtk
github/hpgem/nanomesh
github/ylab-hi/ScanITD
github/ylab-hi/ScanExitronLR
github/JensUweUlrich/ReadBouncer
github/mattpitkin/psrqpy
github/mattpitkin/lintegrate
github/ANTsX/ANTs
github/pierrexyz/pybird
github/ECP-copa/Cabana
github/csinva/imodels
github/vsbuffalo/scythe
github/koenderks/jaspAudit
github/bonsai-team/matam
github/genouest/biomaj-daemon
github/genouest/biomaj-cli
github/pyspeckit/pyspeckit
github/open2c/pairtools
github/donaldRwilliams/GGMnonreg
github/donaldRwilliams/BGGM
github/mpc-bioinformatics/CalibraCurve
github/mlarichardson/CosmosCanvas
github/mlarichardson/ramses2hsim
github/neuralgraphs/diman
github/JFFleming/RCFV_Reader
github/IMS-MAXIMS/openMAXIMS
github/rickhelmus/patRoon
github/moble/GWFrames
github/moble/scri
github/kpenev/poet
github/poldracklab/nitransforms
github/poldracklab/mriqc
github/phil-mansfield/gotetra
github/astroML/gatspy
github/omuse-geoscience/omuse
github/abonaldi/TRECS
github/tariqdaouda/CAMAP
github/hallamlab/TreeSAPP
github/reality/klarigi
github/doriancazeneuve/ODNet
github/max0x7ba/atomic_queue
github/jpahlers/LASR
github/OxES/k2sc
github/tmcclintock/cluster_toolkit
github/tmcclintock/AReconstructionTool
github/synchrofit/synchrofit
github/Narayana-Rao/SAR-tools
github/metaOmics/MetaPath
github/stermzsofi/TiDE
github/Materials-Consortia/OPTIMADE-Filter
github/Materials-Consortia/optimade-python-tools
github/skypyproject/skypy
github/simple-crypto/SCALib
github/bregaldo/pywst
github/RTIInternational/gobbli
github/su2code/SU2
github/alexander-shen/rtest
github/wvanzeist/riroriro
github/getzlab/rnaseqc
github/kavir1698/EvoDynamics.jl
github/FiorenSt/AutoSourceID-Light
github/liuhao-cn/fastSHT
github/jeremysanders/dsdeproj
github/jeremysanders/ggm
github/jeremysanders/mbproj2
github/jeremysanders/contbin
github/jeremysanders/spex_to_xspec
github/jeremysanders/xspec_emcee
github/MD-Studio/MDStudio
github/MD-Studio/cerulean
github/MD-Studio/cerise
github/bic-nirrh/precocity
github/bertrandplez/Turbospectrum2019
github/bertrandplez/Turbospectrum_NLTE
github/flemingtonlab/SpliceV
github/HITS-AIN/GPCC.jl
github/HITS-AIN/PINK
github/MNiwano/Eclaire
github/MOSAICS-NIH/MOSAICS
github/ismaelpessa/PyMUSE
github/TPI-Immunogenetics/igmat
github/climate-machine/Oceananigans.jl
github/kdeck/TTVFast
github/WGLab/LongGF
github/WGLab/InterVar
github/philres/catfishq
github/philres/ngmlr
github/Martinsos/edlib
github/xinyiguan/py2lispIDyOM
github/nlesc-ave/ave-rest-service
github/XuhanLiu/DrugEx
github/ncbi/vadr
github/ncbi/ncbi-vdb
github/ncbi/SKESA
github/ncbi/BAMscale
github/ncbi/ngs
github/ncbi/sra-tools
github/ncbi/datasets
github/ncbi/igblast
github/ncbi/TPMCalculator
github/RafiKueng/SpaghettiLens
github/gtayana/CVRMS
github/villano-lab/nrCascadeSim
github/hansenjohnson/WhaleMap
github/solerjuan/astroHOG
github/solerjuan/magnetar
github/Sulstice/cocktail-shaker
github/virgesmith/neworder
github/rajeshrinet/pystokes
github/bow/fsnviz
github/bow/crimson
github/engyasin/Offline_MOT
github/zavolanlab/PAQR2
github/tkonolige/city2ba
github/RealTimeGenomics/rtg-tools
github/RichardObi/medigan
github/coccoinomane/zelda
github/coccoinomane/song
github/shergreen/SatGen
github/jamesaird/FAST
github/ulebreui/shark
github/idefix-code/idefix
github/mjuric/galfast
github/auranic/ClinTrajan
github/vortex-exoplanet/VIP
github/spectrapepper/spectrapepper
github/devanshkv/fetch
github/GabrieleParimbelli/COLIBRI
github/phylo42/RAPPAS
github/jonathansick/skyoffset
github/jonathansick/starfish
github/jonathansick/MoAstro
github/C-Briddon/SELCIE
github/vavrines/Kinetic.jl
github/theia-dev/Qiber3D
github/ziyewang/MetaBinner
github/ziyewang/ARG_SHINE
github/galtay/sphray
github/galtay/urchin
github/ebmonson/2DFFTUtils-Module
github/Beuth-Erdelt/DBMS-Benchmarker
github/zhwm/SparsePro_Paper
github/sosl/H-FISTA
github/meenakshi-kushwaha/mmaqshiny
github/connectomicslab/connectomemapper3
github/cmzmasek/forester
github/GalletFlorian/TATOO
github/aconley/simple_cosfitter
github/aconley/mbb_emcee
github/tlancian/bio_cs
github/sibirrer/hierArc
github/sibirrer/lenstronomy
github/sibirrer/psfr
github/stinefm/relsad
github/kuadrat/data_slicer
github/jradcliffe5/multi_self_cal
github/mazzalab/pyntacle
github/raphael-group/hatchet
github/rodluger/everest
github/rodluger/planetplanet
github/rodluger/starry_process
github/Yida-Lin/libxdf
github/light-curve/light-curve
github/ggonnella/fastsubtrees
github/ggonnella/gfapy
github/ggonnella/rgfa
github/nanoporetech/qcat
github/nanoporetech/pychopper
github/nanoporetech/scrappie
github/nanoporetech/index.html#
github/nanoporetech/pomoxis
github/nanoporetech/tombo
github/nanoporetech/dorado
github/nanoporetech/flappie
github/nanoporetech/megalodon
github/nanoporetech/pinfish
github/nanoporetech/medaka
github/nanoporetech/ont_fast5_api
github/pydemull/activAnalyzer
github/research-software-directory/research-software-directory
github/zpenoyre/CausticFrog
github/zpenoyre/OoT
github/zhangyk8/sconce-scms
github/davidaknowles/leafcutter
github/tudelft3d/3dfier
github/rkiman/wdwarfdate
github/shengjin/Nii
github/jacksund/simmate
github/ouyang-lab/PRAS
github/r-cas/caracas
github/DavidT3/XGA
github/LucaMalavolta/CCFpams
github/LucaMalavolta/PyORBIT
github/brian-lau/MatlabAUC
github/astrogilda/mirkwood
github/katholt/Kaptive
github/katholt/srst2
github/katholt/Kleborate
github/HajimeKawahara/exojax
github/HajimeKawahara/sot
github/HajimeKawahara/juwvid
github/dkoslicki/TAMPA
github/changhoonhahn/pySpectrum
github/mlpack/mlpack
github/rjtanner/StarburstPy
github/villrv/SuperRAENN
github/JuliaHEP/UnROOT.jl
github/yaml2sbml-dev/yaml2sbml
github/achaikova/frbmclust
github/tornede/py_experimenter
github/dwkim78/ASTRiDE
github/dwkim78/upsilon
github/dwkim78/pdtrend
github/csb-toolbox/CSB
github/qMRLab/qMRLab
github/andycasey/sick
github/Computational-NeuroGenetics/deMeta-beta
github/xiaochuanle/MECAT2
github/srdc/onfhir
github/matteolucchini1/BHJet
github/ocxtal/minialign
github/jianghuaijie/scLRTC
github/ToHanwei/Genome2OR
github/morriscb/The-wiZZ
github/ladsantos/p-winds
github/ladsantos/flatstar
github/vcftools/index.html
github/tessgi/tvguide
github/cog-imperial/entmoot
github/cog-imperial/suspect
github/cog-imperial/GPdoemd
github/cog-imperial/galini
github/PaulKuin/uvotpy
github/e-koch/FilFinder
github/ec363/fpcountr
github/HWang-Summit/HCGrid
github/bhi-kimlab/StressGenePred
github/moscibrodzka/ipole
github/gagneurlab/drop
github/vferat/pycrostates
github/stamatak/ExaML
github/stamatak/AxPcoords.dist
github/davtsang/slimplectic
github/opencollab/arpack-ng
github/dunhamlab/PacRAT
github/compomics/DeepLC
github/compomics/COSS
github/compomics/xilmass
github/dlakaplan/pulsarsurveyscraper
github/pandegroup/openmm
github/KiranLDA/PAMLr
github/BartoszBartmanski/StoSpa2
github/temuller/piscola
github/temuller/hostphot
github/NarlikarLab/exoDIVERSITY
github/mgalardini/pyseer
github/xiaotiand/FunFor
github/dipol-uf/DIPOL-UF
github/deeptools/deepTools
github/deeptools/py2bit
github/deeptools/deeptools_intervals
github/deeptools/HiCExplorer
github/ethankruse/koi3278
github/EdoardoCarlesi/cmbeasy
github/Alymantara/pydoppler
github/ndaniyar/aphot
github/wangchao-malab/DeepAc4C
github/NRDD-constraints/NRDD
github/Dailer/RCausticMass
github/JuliaArrays/LazyArrays.jl
github/JuliaArrays/InfiniteArrays.jl
github/JuliaArrays/BlockArrays.jl
github/sorenwacker/ProteomicsQC
github/AOtools/aotools
github/djgroen/MPWide
github/richteague/eddy
github/richteague/gofish
github/richteague/disksurf
github/richteague/bettermoments
github/pysam-developers/pysam
github/InsightSoftwareConsortium/ITK
github/saeyslab/PeacoQC
github/saeyslab/nichenetr
github/saeyslab/CytoNorm_Figures
github/shbhuk/mrexo
github/shbhuk/barycorrpy
github/Quantum-Dynamics-Hub/libra-code
github/MIAnalyzer/MIA
github/sstadick/perbase
github/ZJUFanLab/bulk2space
github/ZJUFanLab/scTITANS
github/SunilAnandatheertha/PXO
github/JulianKarlBauer/mechkit
github/zarr-developers/zarr-python
github/chandra-marx/marxs
github/duetosymmetry/qnm
github/rivasiker/PhaseTypeR
github/tnakazato/priism
github/lrnv/cort
github/basp-group/sopt
github/basp-group/Optical-Interferometry-Trilinear
github/basp-group/SARA-dimensionality-reduction
github/basp-group/Puri-Psi
github/basp-group/purify
github/basp-group/SARA-PPD
github/lydialucchesi/Vizumap
github/jsobeck/MOOG_SCAT
github/algolab/shark
github/bluefoxr/COINr
github/DLR-RM/BlenderProc
github/lammps/lammps
github/fforster/delight
github/reproducible-biomedical-modeling/Biosimulations
github/telatin/covtobed
github/telatin/qax
github/telatin/bamtocov
github/telatin/seqfu2
github/ConorMacBride/mcalf
github/gperezs/StarcNet
github/pinellolab/CRISPRitz
github/NCIP/visda
github/IRCAD/camp
github/DRMacIver/shrinkray
github/myinxd/mcrgnet
github/tpapp/MCMCDiagnostics.jl
github/SCM-NV/qmflows-namd
github/SCM-NV/qmflows
github/SCM-NV/pyZacros
github/tcassanelli/pywpf
github/napakalas/casbert
github/Merck/pkglite
github/Merck/BioPhi
github/arq5x/lumpy-sv
github/arq5x/grabix
github/arq5x/poretools
github/arq5x/bedtools2
github/TransDecoder/wiki
github/nnssa/gallumi_public
github/mbejger/polgraw-allsky
github/ChristopherWilks/megadepth
github/Sydney-Informatics-Hub/OmixLitMiner
github/loneknightpy/idba
github/stemangiola/tidyHeatmap
github/AnthonyOfSeattle/pyAscoreValidation
github/bihealth/sodar_core
github/JuliaSmoothOptimizers/DCISolver.jl
github/JuliaSmoothOptimizers/PDENLPModels.jl
github/gianthk/ciclope
github/thomasorb/orbs
github/thomasorb/orcs
github/fchuffar/protopackage
github/fchuffar/dmethr
github/fchuffar/epimedtools
github/benstahl92/deepSIP
github/curl/curl
github/jan-rybizki/Galaxia_wrap
github/jan-rybizki/gdr2_completeness
github/jan-rybizki/Chempy
github/EOSC-LOFAR/lofar-ld
github/davidpamos/MultiModes
github/ewanbarr/peasoup
github/pandas-dev/pandas
github/JanCBrammer/biopeaks
github/eleniadam/npgreat
github/yymao/abundancematching
github/keck-datareductionpipelines/MosfireDRP
github/varlociraptor/varlociraptorhub.io
github/ArtificialStellarPopulations/ArtPop
github/DeltaRCM/pyDeltaRCM
github/gkulkarni/QLF
github/statgen/popscle
github/statgen/demuxlet
github/statgen/Minimac4
github/martibosch/detectree
github/AdmiralenOla/Scoary
github/fripon/freeture
github/SchmidtDSE/afscgap
github/mischaschirmer/nebular
github/TNEL-UCSD/autolfads-deploy
github/Rohit-Kundu/ET-NET_Covid-Detection
github/rbturnbull/ausdex
github/cboursnell/crb-blast
github/astrobrent/mappings
github/astrobrent/itera
github/wasserman-group/pyCADMium
github/HHTpy/HHTpywrapper
github/reizio/reiz.io
github/DICP1810/SpotLink
github/DICP1810/ComMap
github/A-Davies/LensCNN
github/abatten/fruitbat
github/cgrudz/DataAssimilationBenchmarks.jl
github/jdonnert/WVTICs
github/adamgayoso/totalVI_reproducibility
github/mikhailklassen/protostellar_evolution
github/PathwayCommons/grounding-search
github/sczesla/PyAstronomy
github/FofanovLab/mtsv_tools
github/fabiopardo/tonic
github/fabiopardo/qmap
github/PabloVD/HAYASHI
github/PabloVD/21cmDeepLearning
github/PabloVD/HaloGraphNet
github/PabloVD/CosmoGraphNet
github/sebastien-plutniak/archeofrag
github/naonori/hitomi
github/temken/obscura
github/temken/DaMaSCUS
github/temken/DarkARC
github/temken/DaMaSCUS-CRUST
github/temken/DaMaSCUS-SUN
github/temken/Dirac_vs_Majorana
github/mcsiple/mmrefpoints
github/bioturing/hera
github/nkallima/sim-universal-construction
github/PyFstat/PyFstat
github/OpenDA-Association/OpenDA
github/ExoplanetML/Nigraha
github/merenlab/anvio
github/rribeiro-sci/pygomodo
github/astrom-tom/specstack
github/astrom-tom/dfitspy
github/johncwok/CategoricalTimeSeries.jl
github/jdidion/atropos
github/LabTranslationalArchitectomics/riboWaltz
github/OpenBioLink/Explorer
github/bokulich-lab/q2-fondue
github/qmarcou/IGoR
github/USNavalResearchLaboratory/eispac
github/dnonatar/Sequoia
github/ViennaRNA/RNAblueprint
github/HuttleyLab/scitrack
github/JuliaOcean/PlanktonIndividuals.jl
github/JuliaOcean/AIBECS.jl
github/zclaytor/kiauhoku
github/zclaytor/butterpy
github/pierrehoudayer/RUBIS
github/thomasdenecker/START-R
github/mkplummer/Imber
github/soichiro-hattori/unpopular
github/szymon-datalions/pyinterpolate
github/NeamulKabir/EnsembleFam
github/morphometry/papaya2
github/gvilitechltd/LibSWIFFT
github/OwenWard/ppdiag
github/lightning-project/lightning
github/wlloyduw/ContainerProfiler
github/robdjeff/eagles
github/easystats/performance
github/easystats/parameters
github/easystats/effectsize
github/easystats/correlation
github/Fermipy/fermipy
github/Yu606/odyssey
github/theosanderson/chronumental
github/exoclime/THOR
github/exoclime/HELIOS
github/exoclime/HELIOS-K
github/exoclime/Helios-r2
github/exoclime/VULCAN
github/exoclime/HELA
github/exoclime/FastChem
github/matteobreschi/bajes
github/lucaborsato/trades
github/daissi/thesias
github/hippke/tls
github/hippke/PyOSE
github/hippke/pandora
github/hippke/wotan
github/hippke/communication
github/SeamusClarke/FragMent
github/SeamusClarke/BTS
github/pangenome/smoothxg
github/Parsl/parsl
github/SciLifeLab/TIDDIT
github/fatmasevinck/enetLTS
github/Cadaei-Yuvxvs/OSHy-X
github/babelomics/impuSARS
github/ParBLiSS/FastANI
github/fair-data/fairdatapoint-client
github/ryokbys/nap
github/RafaelSdeSouza/qrpca
github/epruesse/SINA
github/UUDigitalHumanitieslab/texcavator
github/Keck-DataReductionPipelines/KcwiDRP
github/Keck-DataReductionPipelines/KCWI_DRP
github/thejackal360/OpenPelt-Public
github/PetroFit/petrofit
github/mzemp/halogen
github/r-spatial/rgee
github/jordanlab/STing
github/oneilsh/tidytensor
github/dputhier/pygtftk
github/takafumi291/ESSENCE
github/AstarVienna/ScopeSim_Templates
github/AstarVienna/skycalc_ipy
github/AstarVienna/AnisoCADO
github/AstarVienna/Pyckles
github/AstarVienna/irdb
github/NathanSandford/Chem-I-Calc
github/SJaffa/Jplots
github/yungkipreos/Min-CaLM
github/taranu/AllStarFit
github/hiddenSymmetries/simsopt
github/gwpy/gwpy
github/nabeelre/NIMBLE
github/dmilakovic/QSOSIM10
github/davidemms/OrthoFinder
github/minzastro/unidam
github/fair-software/fairtally
github/fair-software/howfairis
github/kwkx/IPRP
github/QuantEcon/QuantEcon.py
github/spacetx/starfish
github/bwa-mem2/bwa-mem2
github/KeplerGO/PyKE
github/KeplerGO/kadenza
github/KeplerGO/k2mosaic
github/KeplerGO/K2fov
github/lanl/PyBNF
github/lanl/swiftbat_python
github/lanl/CosmicEmu
github/lanl/GLUE
github/lanl/spiner
github/lanl/scico
github/xfangcosmo/2DFFTLog
github/xfangcosmo/FFTLog-and-beyond
github/beckermr/calclens
github/nickk124/RCR
github/andreaminio/haplosync
github/scipy/scipy
github/fair-workflows/NanopubJL
github/fair-workflows/fairworkflows
github/fair-workflows/nanopub
github/FredHutch/SEACR
github/martinjameswhite/ZeldovichRecon
github/quatrope/feets
github/quatrope/ProperImage
github/ArgoCanada/argodata
github/sevenstarknight/SSMM
github/sevenstarknight/LINEARSupervisedClassification
github/sevenstarknight/OCDetector
github/sevenstarknight/VariableStarAnalysis
github/pelican/pelican
github/zdelrosario/py_grama
github/JonasRieger/ldaPrototype
github/ryanvarley/exodata
github/sunnyvagnozzi/Braneworld-extra-dimensions
github/EoRImaging/FHD
github/MarioRomeroC/Mixclask
github/dokester/BayesicFitting
github/Ramialison-Lab-ARMI/3DCardiomics
github/0satoken/Eclairs
github/swagnercarena/ovejero
github/swagnercarena/paltas
github/LiuJJ0327/CCPE
github/vembrane/vembrane
github/jameschapman19/cca_zoo
github/IBMTRostock/GIFT
github/interactivereport/OmicsView0
github/csabiu/kstat
github/saphir746/BiobankRead-Bash
github/yiwenstat/MCPCA_PopGen
github/computational-chemical-biology/ChemWalker
github/hoechenberger/questplus
github/kd0kfo/cosmology
github/HUST-DataMan/FRMC
github/siminegroup/E2EDNA2
github/cov-lineages/pangolin
github/cov-lineages/pangoLEARN
github/ParkerLab/ataqv
github/jmason86/James-s-EVE-Dimming-Index-JEDI
github/danielemichilli/DM_phase
github/danielemichilli/SpS
github/KerryAM-R/ggVolcanoR
github/giswqs/leafmap
github/giswqs/geemap
github/giswqs/lidar
github/lkreidberg/batman
github/mlr-org/mcboost
github/bcgov/shinyssdtools
github/bcgov/bcdata
github/snakemake/snakemake
github/multiwavelength/redshifts
github/multiwavelength/gleam
github/Pranab-JD/LeXInt
github/BrianAronson/birankr
github/biomedia-mira/istn
github/biomedia-mira/masf
github/biomedia-mira/drop2
github/biomedia-mira/blast-ct
github/biomedia-mira/deepscm
github/guangtunbenzhu/SetCoverPy
github/guangtunbenzhu/NonnegMFPy
github/hover2pi/SEDkit
github/yuansliu/minirmd
github/hmtabernero/SteParSyn
github/DESI-UR/VAST
github/BenWibking/quokka
github/nonlocalmodels/NLMech
github/hishamhm/htop
github/yogi-tud/space_gpu
github/glis-glis/loci
github/rabix/cwl-format
github/Alcampopiano/hypothesize
github/jspsych/jspsych
github/niemasd/CoaTran
github/ShubhadeepSadhukhan1993/fastSF
github/AstroVPK/kali
github/PabloMSanAla/fabada
github/tbisbas/PDFchem
github/cran/irtplay
github/robashaw/libecpint
github/SharmaLlama/ticktack
github/AA-ALERT/AMBER
github/AA-ALERT/AstroData
github/AA-ALERT/frbcat-web
github/AA-ALERT/Dedispersion
github/AA-ALERT/frbcatdb
github/rrwick/Deepbinner
github/rrwick/Porechop
github/rrwick/Bandage
github/rrwick/Unicycler
github/rrwick/Filtlong
github/HAWinther/FML
github/HAWinther/MG-PICOLA-PUBLIC
github/oruhnau/when2heat
github/dgarrimar/sqtlseeker2-nf
github/UNSW-CEEM/nempy
github/JungleComputing/rocket
github/johnveitch/cpnest
github/wf4ever/astrotaverna
github/JLiangLab/TransVW
github/AstroUGent/shadowfax
github/DLTK/DLTK
github/yair111/AnalyticLC
github/ExeClim/Isca
github/ryansmcgee/seirsplus
github/TRIQS/solid_dmft
github/hongwanliu/DarkHistory
github/martinlackner/abcvoting
github/uedaLabR/nanoDoc
github/kostergroup/SIMsalabim
github/cameron314/concurrentqueue
github/scikit-hep/iminuit
github/scikit-hep/pyhf
github/EliseJ/astroABC
github/scikit-learn-contrib/hdbscan
github/AlexMikes/AutoFunc
github/qiime2/q2-vsearch
github/jalombar/starsmasher
github/bsafdi/stellarWakes
github/Kushaalkumar-pothula/FLARE
github/candYgene/QTM
github/candYgene/abg-ld
github/candYgene/siga
github/candYgene/pbg-ld
github/MaayanLab/signature-commons-ui
github/Jane110111107/IsoTree
github/daniellefenech/SERPent
github/fccoelho/epigrass
github/fccoelho/epimodels
github/ArenA-Crowds/Crowds
github/JoschaJ/mockFRBhosts
github/d-tear/SIAL
github/parallelwindfarms/byteparsing
github/cosimameyer/overviewR
github/sibyllema/Fast-Multiscale-Diffusion-on-Graphs
github/mtazzari/galario
github/mtazzari/uvplot
github/mtazzari/binary
github/siavash-saki/tesspy
github/sonjageorgievska/CClusTera
github/JunTaoLuo/mctreesearch4j
github/jfarek/xatlas
github/jfarek/alignstats
github/weecology/retriever
github/tomasstolker/ARTES
github/tomasstolker/pycrires
github/tomasstolker/species
github/santeripuranen/SpydrPick
github/IPIS-XieLei/CNTSeg
github/xstarkit/mpi_xstar
github/psheehan/pdspy
github/mackelab/sbi
github/danhey/maelstrom
github/danhey/echelle
github/peterk87/sistr_cmd
github/deepmedic/deepmedic
github/arangrhie/merfin
github/RoelofBerg/limereg
github/nwchemgit/nwchem
github/PaulMcMillan-Astro/Torus
github/PaulMcMillan-Astro/GalPot
github/DrMarc/slab
github/Gaiana/nirdust
github/scrook/neuroml-db
github/lh3/bioawk
github/lh3/wgsim
github/lh3/minimap2
github/lh3/fermi-lite
github/lh3/bgt
github/lh3/seqtk
github/lh3/miniasm
github/freelawproject/eyecite
github/jianlin-cheng/DRCon
github/jonaselgammal/GPry
github/Dulab2020/ARMT
github/mrtommyb/ktransit
github/QuantumPlasma/SFQEDtoolkit
github/online-behaviour/find-journalists
github/online-behaviour/machine-learning
github/tdaylan/pcat
github/walaj/SeqLib
github/walaj/svaba
github/bblodfon/emba
github/Kaixhin/dockerfiles
github/Kaixhin/FGLab
github/Kaixhin/PlaNet
github/Kaixhin/FGMachine
github/Kaixhin/spinning-up-basic
github/Kaixhin/Autoencoders
github/Kaixhin/Atari
github/Kaixhin/Rainbow
github/PengyiZhang/DRR4Covid
github/4pisky/fourpisky-core
github/ggciag/mandyoc
github/awsteiner/bamr
github/awsteiner/o2scl
github/odlomax/spamcart-dev
github/Jinsl-lab/SDImpute
github/octopus-sensing/octopus-sensing
github/CDSP-SCPO/metadata-middleware
github/CDSP-SCPO/dataverse-feed
github/CDSP-SCPO/WPSS-for-ESS-webpanel
github/cwru-pat/cosmograph
github/cwru-pat/cmb-multipole_vectors
github/dfujim/bfit
github/OncoRNALab/CiLiQuant
github/wiederm/transformato
github/ariedel/lacewing
github/TianlaiProject/tlpipe
github/AbeelLab/lorikeet
github/bancaditalia/black-it
github/pfaucon/PBSIM-PacBio-Simulator
github/ProjectPyRhO/PyRhO
github/morispi/LRez
github/DochtermannLab/BehavioralHeritability
github/DochtermannLab/G-PopComparison
github/keatonb/Pyriod
github/keatonb/TESS_PRF
github/LindleyLentati/Cobra
github/traja-team/traja
github/widdowquinn/pyani
github/kevin218/Eureka
github/tinglabs/scAIDE
github/fraserw/TRIPPy
github/andersen-lab/html
github/andersen-lab/ivar
github/ABard0/MDGF-MCEC
github/csuhjhjhj/GCNCMI
github/afeinstein20/stella
github/afeinstein20/eleanor
github/mengyao/Complete-Striped-Smith-Waterman-Library
github/cdslaborg/paramonte
github/blind-contours/CVtreeMLE
github/VMBoehm/MADLens
github/indrops/indrops
github/chocoteam/choco-solver
github/nickelnine37/pykronecker
github/meinardmueller/synctoolbox
github/meinardmueller/libfmp
github/nextstrain/auspice
github/nextstrain/augur
github/nextstrain/nextclade
github/pontoppi/radlite
github/lpantano/seqcluster
github/lpantano/seqbuster
github/VirtualPlanetaryLaboratory/atmos
github/VirtualPlanetaryLaboratory/vplanet
github/wmglab-duke/ascent
github/SWIFTSIM/emulator
github/shihyuntang/igrins_rv
github/LucaJRossi/NIGO
github/inrae/RCaNmodel
github/tool-bin/ukbcc
github/MCTwo/MCMAC
github/alexdobin/STAR
github/bpp/bpp
github/orcasgit/python-fitbit
github/KIT-MBS/pyREX
github/fhcrc/seqmagick
github/cdfortenbach/JET
github/fgbuster/fgbuster
github/JieZheng-ShanghaiTech/PiLSL
github/joe-antognini/kozai
github/hjens/lasso_spectra
github/AndreaCaldiroli/ATES-Code
github/rasg-affiliates/healvis
github/bbfrederick/stabilitycalc
github/EbmeyerSt/GEnView
github/dtanoglidis/DeepShadows
github/leprojetcastor/castor
github/igmhub/picca
github/igmhub/baofit
github/ICESat2-SlideRule/paper
github/mdolab/pygeo
github/SciOmicsLab/PhenoComb
github/weizhongli/cdhit
github/nilearn/nilearnhub.io
github/tud-hri/joan
github/tud-hri/travia
github/debian-tex/biber
github/debian-tex/texlive-nonbin
github/pedro-acunha/SHEEP
github/EcoJulia/EcologicalNetworks.jl
github/EcoJulia/Microbiome.jl
github/EcoJulia/SimpleSDMLayers.jl
github/XSLiuLab/Seq2Neo
github/brandonckelly/carma_pack
github/libdynd/dynd-python
github/milicolazo/Pyedra
github/metawards/MetaWards
github/zachetienne/nrpytutorial
github/Multiversario/satcand
github/galaxyproject/ansible-tiaas2
github/galaxyproject/galaxy-lib
github/cosmostat/pmclib
github/cosmostat/CosmoPMC
github/cosmostat/nicaea
github/ronshnapp/MyPTV
github/SPARTA-dev/SPARTA
github/MRChemSoft/mrchem
github/ECP-WarpX/WarpX
github/bokeh/bokeh
github/OpenMDAO/dymos
github/mpokorny/vysmaw
github/baxmittens/VTUFileHandler
github/dbosul/CWITools
github/galsci/pysm
github/halomod/halomod
github/halomod/hmf
github/dgrin1/axionCAMB
github/ulelab/ultraplex
github/artis-mcrt/artis
github/sPaMFouR/RedPipe
github/indraniel/fqgrep
github/studla/RYUTO
github/cb-geo/mpm
github/Muhammad-Arif-NUST/BVP_Pred_Unb
github/cdanielmachado/reframed
github/nbarbey/TomograPy
github/radio-astro-tools/pvextractor
github/radio-astro-tools/uvcombine
github/radio-astro-tools/spectral-cube
github/jsh58/Genrich
github/umbramortem/nProFit
github/danielemelini/ALMA3
github/SandoghdarLab/PiSCAT
github/4dn-dcic/pairix
github/PeterBartram/TES
github/soerenslarsen/ISPy3
github/cholla-hydro/cholla
github/rinikerlab/Ensembler
github/WGS-TB/MentaLiST
github/llrs/experDesign
github/JoelForamitti/agentpy
github/davidhoksza/traveler
github/davidhoksza/MolArt
github/smaret/thindisk
github/smaret/astrochem
github/mikessh/oncofuse
github/mikessh/vdjtools
github/FourierFlows/GeophysicalFlows.jl
github/illumina/pyflow
github/maxbernyk/lightcone
github/austinpeel/herculens
github/spyder-ide/spyder
github/christopherlovell/sengi
github/rauschenberger/joinet
github/rauschenberger/transreg
github/mkenworthy/exorings
github/CityU-AIM-Group/HTD
github/pscicluna/precision
github/facebookresearch/segment-anything
github/facebookresearch/faiss
github/mriener/gausspyplus
github/jo276/EvapMass
github/dalya/WeirdestGalaxies
github/rhyspoulton/OrbWeaver
github/rhyspoulton/WhereWolf
github/abeelen/powspec
github/RTIP/artip
github/CAMI-challenge/CAMITAX
github/bcerutti/Zeltron-code
github/LiesaSalzer/MobilityTransformR
github/HingeAssembler/HINGE
github/PCMSolver/pcmsolver
github/AemulusProject/bias_emulator
github/bokunoBike/m6AGE
github/li-yangyang/lotus
github/cylammarco/ASPIRED
github/cylammarco/WDPhotTools
github/gymreklab/GangSTR
github/gymreklab/chips
github/vbaliga/gaussplotR
github/tobias-dv-lnu/s4rdm3x
github/ginolhac/mapDamage
github/ugovaretto/molekel
github/rnikutta/rhocube
github/esandford/EightBitTransit
github/mbursa/disk-models
github/mbursa/sim5
github/jfoster17/extinction-distances
github/ydLiu-HIT/deSALT
github/SMTG-UCL/surfaxe
github/SMTG-UCL/ShakeNBreak
github/ziotom78/Healpix.jl
github/ziotom78/libpolycomp
github/ziotom78/dacapo_calibration
github/putonti/virmine
github/dynamicslab/pysindy
github/ChileanVirtualObservatory/indexing_utfsm
github/maayane/catsHTM
github/insightsengineering/rbmi
github/Shyentist/fish-r-man
github/vfonov/DARQ
github/YaleTHz/nelly
github/ManuelBehrendt/Mera.jl
github/ajosephy/Clustering
github/GOMC-WSU/GOMC
github/JamesPaynter/PyGRB
github/marieBvr/virAnnot
github/jfwallin/JSPAM
github/standage/AEGeAn
github/RongquanWang/ELF-DPC
github/savage13/sacio
github/fairtracks/omnipy_examples
github/gerddie/maxflow
github/jaimedelacruz/stic
github/dtcc-platform/dtcc-builder
github/tmux/tmux
github/danielenricocahall/elephas
github/lehtiolab/msstitch
github/idruglab/hignn
github/brunettsp/myosothes
github/patscott/pippi
github/patscott/ddcalc
github/patscott/gambit_1.3
github/LSARP/ProteomicsQC
github/biobakery/halla
github/chapmanb/bcbio.prioritize
github/chapmanb/bcbb
github/chapmanb/bcbio.variation
github/akcochrane/TEfits
github/BasilioRuiz/SIR-code
github/bcalden/ClusterPyXT
github/mrempel/geohexviz
github/pysat/pysat
github/jrenaud90/TidalPy
github/neuroanatomy/reorient
github/matchms/matchms
github/matchms/ms2deepscore
github/emossoux/LIFELINE
github/johnh2o2/cuvarbase
github/nu-radio/NuRadioMC
github/florisvb/PyNumDiff
github/kibokov/grumpy
github/mzytnicki/srnaMapper
github/mp3guy/ElasticFusion
github/vipinagrawal25/MeMC
github/BogdanCiambur/PROFILER
github/elsner/arkcos
github/dparks1134/RefineM
github/kendomaniac/docker4seq
github/kendomaniac/rCASC
github/cupy/cupy
github/OSU-BMBL/IDAM
github/WorkflowConversion/CTDConverter
github/WorkflowConversion/CTDopts
github/agombolay/ribose-map
github/MicGrasso/bigonlight
github/RajLabMSSM/echolocatoR
github/AndreyTavleev/DiscVerSt
github/minaskar/pocomc
github/minaskar/zeus
github/minaskar/hankl
github/qpv-research-group/solcore5
github/locasto/libdisorder
github/smog-server/OpenSMOG
github/ADAH-EviDENce/evidence
github/inpefess/gym-saturation
github/berenslab/MorphoPy
github/vterron/lemon
github/drupke/ifsred
github/drupke/ifsfit
github/drupke/questfit
github/samtools/bcftools
github/samtools/samtools
github/samtools/htslib
github/samtools/htsjdk
github/kdmurray91/axe
github/kdmurray91/libqes
github/kdmurray91/libqcpp
github/BackofenLab/Peakhood
github/BackofenLab/IntaRNA
github/BackofenLab/StoatyDive
github/KorfLab/SNAP
github/olivares-j/Kalkayotl
github/jbytecode/LinRegOutliers
github/jbytecode/JMcDM
github/zhangrengang/SubPhaser
github/mjoppich/bioGUItools
github/griffithlab/regtools
github/linnarsson-lab/loompy
github/dirac-institute/asterogap
github/csmsoftware/IMPaCTS
github/PyTorchLightning/metrics
github/mroosmalen/nanosv
github/hveerten/katu
github/hveerten/boxfit
github/galaxy001/pirs
github/Punzo/SlicerAstro
github/Cosmoglobe/zodipy
github/LiberTEM/LiberTEM
github/NBISweden/AGAT
github/malonge/RagTag
github/jamesrhester/Lerche.jl
github/SchedMD/slurm
github/spglib/spgrep
github/MichaelSel/edoJS
github/pawni/BayesByHypernet
github/muctadir/lama
github/a-slide/pycoQC
github/EvolBioInf/andi
github/EvolBioInf/phylonium
github/atfrank/PyShifts
github/mtlam/PyPulse
github/liamedeiros/ehtplot
github/UCD4IDS/WaveletsExt.jl
github/surhudm/aum
github/surhudm/savitzky_golay_with_errors
github/haoharryfeng/NeuCA
github/HajkD/LTRpred
github/torluca/morphofit
github/RavenGan/GR2D2
github/etempel/Bisous
github/flosalbizziae/kataegis
github/timoast/signac
github/jkbonfield/crumble
github/jkbonfield/htscodecs
github/jkbonfield/io_lib
github/shenwei356/unikmer
github/shenwei356/seqkit
github/shenwei356/csvtk
github/symmy596/Polypy
github/symmy596/SurfinPy
github/AIgnesti/PT-REX
github/mikecokina/elisa
github/DSIMB/medusa
github/sina-cb/Tn-seqExplorer
github/bwoshea/ZEUS-MP_2
github/ClaudioZandonella/PRDA
github/mlujnie/simple
github/anchal-009/SAVED21cm
github/gmzsebastian/FLEET
github/aamedinburgh/igmtransmission
github/bioinfo-center-pasteur-fr/toppred
github/kboone/parsnip
github/kboone/avocado
github/mlower/rmnest
github/mikesmitka/truvot
github/eblur/dust
github/USU-Analytics-Solution-Center/Bruno.jl
github/Oftatkofta/cellocity
github/caracal-pipeline/caracal
github/arabic-digital-humanities/adhtools
github/3d-pli/fastpli
github/lutteropp/NetRAX
github/pangeo-data/climpred
github/dolfin-adjoint/pyadjoint
github/QEF/q-e
github/NLESC-JCER/QMCTorch
github/NLESC-JCER/EigenCuda
github/NLESC-JCER/Fortran_Davidson
github/NLESC-JCER/QMCblip
github/msolpera/pyUPMASK
github/wullm/fastdf
github/wullm/zwindstroom
github/mrvollger/rustybam
github/mrvollger/fibertools-rs
github/puregome/notebooks
github/exomishra/kobe
github/jendelel/PrankWebApp
github/ScialdoneLab/MitoHEAR
github/lucydot/effmass
github/liulei/volks2
github/ejeschke/ginga
github/winger/hawking_net
github/davideamato/NAPLES
github/joshspeagle/dynesty
github/lpfworld/DMPNet
github/fdebras/ECLIPS3D
github/ComputationalPhysiology/simcardems
github/Vini2/GraphBin
github/combine-lab/salmon
github/SAIL-Labs/AMICAL
github/sarrvesh/cuFFS
github/florian-lienhard/MM-LSD
github/xenon-middleware/xenon
github/xenon-middleware/pyxenon
github/kehrlab/PopDel
github/Rocsg/FijiRelax
github/mc-imperial/jfs
github/mc-imperial/multicore-test-harness
github/mc-imperial/gpuverify
github/krober10nd/SeismicMesh
github/yukiteruono/pbsim2
github/grant-m-s/astronomicAL
github/dtamayo/reboundx
github/LTeinturier/Cloud-Killer-
github/yangfangs/KPP
github/yangfangs/test_GFICLEE
github/ConnorStoneAstro/AutoProf
github/MesserLab/SLiM
github/ImperialCollegeLondon/magda_tools
github/ImperialCollegeLondon/epidemia
github/ImperialCollegeLondon/sap-voicebox
github/ImperialCollegeLondon/WInc3D
github/ImperialCollegeLondon/django-drf-filepond
github/ImperialCollegeLondon/R2T2
github/ImperialCollegeLondon/safedata
github/ImperialCollegeLondon/pytest_template_application
github/ImperialCollegeLondon/ICLOCS
github/ImperialCollegeLondon/EpiCollectplus
github/ImperialCollegeLondon/adam
github/ImperialCollegeLondon/covid19model
github/ImperialCollegeLondon/research-software-directory-data
github/ImperialCollegeLondon/champ
github/ImperialCollegeLondon/rcs-pacemakers
github/ImperialCollegeLondon/hcga
github/ImperialCollegeLondon/sharpy
github/ImperialCollegeLondon/UVLM
github/ImperialCollegeLondon/rcs_cluster_scripts
github/ImperialCollegeLondon/fractalgenetics
github/dianna-ai/dianna
github/taoliu/MACS
github/exoplanet-dev/exoplanet
github/numpy/numpy
github/SAMI-Galaxy-Survey/sami
github/horovod/horovod
github/McMahonCosmologyGroup/holosim-ml
github/ebellm/pyraf-dbsp
github/Ashod/garli
github/antoinemarchal/ROHSA
github/ThomasMBury/ewstools
github/glenco/lensed
github/jdhenshaw/scousepy
github/jdhenshaw/SCOUSE
github/jdhenshaw/acorns
github/ghislainv/forestatrisk
github/hamers/secularmultiple
github/hamers/tpi
github/gijut/gnucash
github/tommyau/bamclipper
github/felixchenier/kineticstoolkit
github/ACCarnall/SpectRes
github/ACCarnall/bagpipes
github/Higgins00/TESS-Localize
github/mishioo/tesliper
github/grahambell/pymoc
github/GunzIvan28/rMAP
github/askap-craco/CELEBI
github/exafmm/exafmm-t
github/heuermh/dishevelled-bio
github/cistrome/MIRA
github/rdpstaff/TaxonomyTree
github/rdpstaff/AlignmentTools
github/rdpstaff/ReadSeq
github/rdpstaff/classifier
github/asancpt/caffsim
github/IanHeywood/oxkat
github/Shamir-Lab/domino_web
github/daddeptr/Needlets
github/radifar/PyPLIF-HIPPOS
github/vedantchandra/wdtools
github/vreverdy/magrathea-pathfinder
github/phillippro/pexo
github/phillippro/agatha
github/CederGroupHub/smol
github/pymatting/pymatting
github/tlverse/hal9001
github/JCGoran/coffe
github/pratheesh3780/grapesAgri1
github/SolavLab/DuoDIC
github/rhysf/HaplotypeTools
github/clawpack/clawpack
github/clawpack/pyclaw
github/megbedell/wobble
github/patkel/big-macs-calibrate
github/i-VRESSE/workflow-builder
github/i-VRESSE/pdbtbx-ts
github/luinix/pesco
github/miguelcarcamov/csromer
github/miguelcarcamov/gpuvmem
github/ntcockroft/STarFish
github/denglab/SeqSero
github/bwkeller/PASTA
github/JLSteenwyk/ggpubfigs
github/ByrumLab/proteoDA
github/lzx325/DeeReCT-APA-repo
github/SandyYuan/s3PCF
github/SandyYuan/GRAND-HOD
github/snowformatics/macrobot
github/USEPA/nsink
github/SKA-INAF/caesar-rest
github/ColemanRHarris/mxnorm
github/jkimlab/msPIPE
github/jianhuupenn/SpaGCN
github/pyro-ppl/pyro
github/annajenul/UBayFS
github/ZjuLiangsl/mmkp
github/eggplantbren/Exoplanet
github/eggplantbren/RJObject
github/eggplantbren/DNest3
github/eggplantbren/DNest4
github/eggplantbren/RMHB
github/Climdyn/qgs
github/floodlight-sports/floodlight
github/diCenzo-GC/Tn-Core-webserver
github/annayqho/TheCannon
github/PeterDenton/ANA
github/chenwuperth/rgz_rcnn
github/BEAST-Fitting/beast
github/seap-udea/iWander
github/mortonne/psifr
github/ESMValGroup/ESMValCore
github/ESMValGroup/ESMValTool
github/dnafinder/uroccomp
github/PynPoint/PynPoint
github/PeterKamphuis/FAT
github/trygvrad/DF-XRM_viz
github/NeoGeographyToolkit/StereoPipeline
github/CSUBioGroup/GraphLncLoc
github/netsiphd/netrd
github/lucabaldini/ixpeobssim
github/argiopetech/base
github/vpc-ccg/svict
github/vpc-ccg/calib
github/vpc-ccg/genion
github/FelixKrueger/TrimGalore
github/dgobbi/vtk-dicom
github/E3SM-Project/gdess
github/aneeshnaik/spam
github/lantunes/cellpylib
github/schlafly/crowdsource
github/li-shaochuan/SEDIM
github/LuisScoccola/persistable
github/DeepRegNet/DeepReg
github/musevlt/origin
github/musevlt/muse-psfr
github/vincentlab/PyFR
github/alphaparrot/ExoPlaSim
github/el2718/FastQSL
github/FraunhoferIWES/foxes
github/sfarrens/sf_deconvolve
github/sfarrens/sfof
github/mbillingr/libgdf
github/nathanael-fijalkow/DeepSynth
github/mdlreyes/void-dwarf-analysis
github/masadcv/FastGeodis
github/TeamPerie/CellDestiny
github/VIB-PSB/MINI-EX
github/Ensembl/ensembl-vep
github/Ensembl/WiggleTools
github/r-spatialecology/shar
github/MartianColonist/POSEIDON
github/simoncasassus/ConeRot
github/marcelauliano/MitoHiFi
github/nithyanandan/PRISim
github/podondra/eidein
github/podondra/bayesian-sznet
github/jackmwolf/tehtuner
github/TriPed-Robot/TriP
github/mikegrudic/pytreegrav
github/mikegrudic/MakeCloud
github/Effective-Quadratures/Effective-Quadratures
github/jydu/maffilter
github/jydu/physamp
github/olivecha/guitarsounds
github/bioinform/somaticseq
github/hildebra/sdm
github/hildebra/LCA
github/adamjermyn/Skye
github/icrar/daliuge
github/jakeown/astroclover
github/pmvreeswijk/BlackBOX
github/pmvreeswijk/ZOGY
github/ropensci-org/rotemplate
github/ropensci-org/pkgreviewr
github/ropensci-org/roblog
github/rgerum/pylustrator
github/marbl/Mash
github/marbl/Krona
github/marbl/Winnowmap
github/marbl/MashMap
github/gerthmicha/wolbachia-mlst
github/lanzen/ampliconnoise
github/Social-Evolution-and-Behavior/anTraX
github/stevenweaver/seqcomplexity
github/pepkit/geofetch
github/astroCV/astroCV
github/lasseignelab/CINmetrics
github/LiShuTJ/NDNet
github/kiyo-masui/bitshuffle
github/logological/gpp
github/agshumate/LiftoffTools
github/mjshao06/pdifFinder
github/Imperial-visualizations/Physics-Visualizations
github/0xCoto/Virgo
github/rordenlab/dcm2niix
github/MikkelSchubert/adapterremoval
github/cmoestl/3DCORE
github/NIFTI-Imaging/nifti_clib
github/bartongroup/RoSA
github/bartongroup/yanosim
github/jellis18/PTMCMCSampler
github/churchmanlab/genewalk
github/multiscale/muscle3
github/darioizzo/dcgp
github/fast-data-transfer/fdt
github/pepamengual/UEP
github/ntoles/tristan-mp-pitp
github/ants-project/ANTs
github/champsproject/ldds
github/discsim/frank
github/c-martinez/BeyondTheBook
github/msyazwanfaid/Authentication-Algorithm-for-New-Moon-Visibility-Report
github/msyazwanfaid/hilalpy
github/jeaadams/ExoPix
github/fenderglass/Flye
github/fenderglass/Ragout
github/Yu-Group/veridical-flow
github/YonghuiDong/RawHummus
github/hungyipu/Odyssey
github/aliojjati/MGCAMB
github/AlexMaraio/WeakLensingQML
github/MJTemple/qsogen
github/barnabytprowe/imcom
github/pezmaster31/bamtools
github/atomec-project/atoMEC
github/Ayuei/DeBEIR
github/elkebir-group/derna
github/elkebir-group/Jumper
github/nitadori/SCF-FDPS
github/harrispopgen/mutyper
github/max-little/GRAPL
github/jonzink/EDI-Vetter
github/jonzink/EDI_Vetter_unplugged
github/jhparkastro/gpcal
github/insilicomedicine/GENTRL
github/backyardworlds/wiseview
github/chervias/DustFilaments
github/Azeret/galIMF
github/scipion-em/scipion-em-continuousflex
github/rmaphoh/AutoMorph
github/scikit-image/scikit-image
github/dansarie/sboxgates
github/SWAT-Sheffield/SAC
github/alexrhowe/APOLLO
github/kegiljarhus/pyBEMT
github/ZacharyJia/opsdn
github/uclchem/Chemulator
github/xiaofengsong/pHisPred
github/csj607/STaRS
github/lcpp-org/RustBCA
github/fabiorigamonti/bang
github/nmslib/hnswlib
github/sing-group/my-brain-seq
github/sing-group/seda
github/mmp2/megaman
github/asmusskar/ALVA
github/nhejazi/txshift
github/nhejazi/haldensify
github/nhejazi/medoutcon
github/Circuitscape/Omniscape.jl
github/astrostat/LIRA
github/astrostat/BASCS
github/astrostat/Automark
github/yanzhanglab/Graph2GO
github/astrosmili/smili
github/tony-travis/PIQUE
github/dunnkers/fseval
github/astronomyk/SimCADO
github/mpi4py/shmem4py
github/darrencroton/sage
github/equipeGST/RiboDoc
github/1054/Crab.Toolkit.michi2
github/ahmedmoustafa/JAligner
github/voutcn/megahit
github/carlodev/SyntheticEddyMethod.jl
github/healpy/healpy
github/biolab-unige/nifti2dicom
github/lwang-astro/SDAR
github/lwang-astro/PeTar
github/forceflow1049/phast
github/aspuru-guzik-group/funsies
github/gridap/Gridap.jl
github/aviadpi/SparseBLS
github/jean-pierreBoth/gsearch
github/flu-crew/smot
github/ferdymercury/amide
github/numba/numba
github/linDing-groups/Deep-4mCW2V
github/matthewholman/assist
github/YihanWangAstro/SpaceHub
github/CosmoLike/CosmoCov
github/webbjj/clustertools
github/webbjj/m2mcluster
github/yuansh3354/CaSee
github/arviz-devs/arviz
github/vhaasteren/piccard
github/jiwoncpark/baobab
github/JannisHoch/copro
github/AbbasAlameer/geoCancerPrognosticDatasetsRetriever
github/918particle/AskaryanModule
github/jdcphysics/validation
github/ShixiangWang/sigminer
github/algo-cancer/CAMMiQ
github/kolikem/loma
github/lkmklsmn/DrivAER
github/SegataLab/lefse
github/jonschwenk/RivGraph
github/ComparativeGenomicsToolkit/cactus
github/Pithikos/C-Thread-Pool
github/ELELAB/RosettaDDGPrediction
github/ELELAB/LipidDyn
github/ELELAB/cancermuts
github/ELELAB/CAncer-bioMarker-Prediction-Pipeline-CAMPP
github/JanLeppert/GasChromatographySimulator.jl
github/ndaniel/fusioncatcher
github/JulianBMunoz/RelicFast
github/JulianBMunoz/Zeus21
github/JulianBMunoz/21cmvFAST
github/xuanxu/starmatrix
github/EnricoCorsaro/DIAMONDS
github/EnricoCorsaro/FAMED
github/ericsteinbring/World_Observatory
github/infer-actively/pymdp
github/FAIR-data-for-CAPACITY/FHIR-to-CAPACITY
github/mneeleman/qubefit
github/clwainwright/CosmoTransitions
github/ofionnad/radiowinds
github/oliverphilcox/PolyBin
github/oliverphilcox/RascalC
github/oliverphilcox/HIPSTER
github/oliverphilcox/HADES
github/oliverphilcox/Keplers-Goat-Herd
github/oliverphilcox/Spectra-Without-Windows
github/oliverphilcox/encore
github/ngltr/sinaps
github/sjforeman/StringFast
github/WatsonLab/MAGpy
github/wilsonrljr/sysidentpy
github/yesint/EnCurv
github/JuliaMatrices/BandedMatrices.jl
github/JuliaMatrices/LazyBandedMatrices.jl
github/JuliaMatrices/BlockBandedMatrices.jl
github/Eventdisplay/Eventdisplay
github/konradhoeffner/hdt
github/Onogi/VIGoR
github/shinichiroando/sashimi-c
github/shinichiroando/sashimi-w
github/Johannes-Sahlmann/pygacs
github/guilledufort/EnanoFASTQ
github/tvwenger/wisp
github/tvwenger/millennium-tap-query
github/tvwenger/HII-Region-Models
github/tvwenger/hii-region-kinematics
github/tvwenger/tmbidl
github/tvwenger/kd
github/ruanjue/wtdbg2
github/constantAmateur/SoupX
github/kno10/python-kmedoids
github/nemesiscode/radtrancode
github/nickhand/pyRSD
github/veg/tn93
github/christophuv/PeakBot_example
github/Caltech-IPAC/Montage
github/djbard/ccogs
github/KALMUS-Color-Toolkit/KALMUS
github/ryanhausen/fitsmap
github/aboucaud/pypher
github/apcamargo/prodigal-gv
github/jcibanezm/DustCharge
github/MikeSWang/HorizonGRound
github/MikeSWang/Harmonia
github/brettc/partitionfinder
github/iontorrent/TS
github/mbaes/SpheCow
github/robertwissing/EOS
github/sbird/fake_spectra
github/sbird/GenPK
github/Aarhus-Psychiatry-Research/timeseriesflattener
github/ewatercycle/era5cli
github/DataIntellSystLab/KARGA
github/netrias/rnassist
github/mdruett/COCOPLOT
github/deeprob/ThioesteraseEnzymeSpecificity
github/pvlib/pvlib-python
github/DrJCarson/BoundedCoalescent
github/BD2KGenomics/toil
github/adammoss/supernovae
github/IBM/fold2seq
github/phelelani/nf-rnaSeqCount
github/phelelani/nf-rnaSeqMetagen
github/fbreitwieser/krakenuniq
github/MIC-DKFZ/HD-BET
github/MIC-DKFZ/TractSeg
github/vdemichev/DiaNN
github/Xia-Yijie/Xponge
github/hemanthpruthvi/PyAstroPol
github/afd-illinois/grim
github/MolecularAI/DockStreamCommunity
github/JulioHC00/PEPITA
github/jfowkes/pycutest
github/GBLille/MassiveFold
github/ratschlab/metagraph
github/matthiaslee/Xmatch
github/pnnl/interflow
github/Lyalpha/spalipy
github/dkirkby/gphist
github/SchlossLab/mikropml
github/smeingast/PNICER
github/barbagroup/geoclaw-landspill
github/jteutenberg/downpore
github/mary77/scQcut
github/souzamonteiro/cnatool
github/rafaeleufrasio/lightning
github/EMBL-Hentze-group/htseq-clip
github/gt1/bambamc
github/rorybarnes/EqTide
github/EGaraldi/corecon
github/EGaraldi/ZInCo
github/JEFworks-Lab/STdeconvolve
github/nlesc/embodied-emotions-scripts
github/nlesc/scriptcwl
github/linqs/psl
github/anuradhawick/LRBinner
github/SpaceML/GalaxyGAN
github/Cascella-Group-UiO/HyMD
github/drcandacemakedamoore/cleanX
github/Hoohm/CITE-seq-Count
github/pwry/lextes
github/UM-Bridge/umbridge
github/lu-yizhou/ClusterSeg
github/lgbouma/gyro-interp
github/witseie/fpgaperm
github/adrijd/beamconv
github/silburt/DeepMoon
github/BoPeng/simuPOP
github/pipliggins/EVolve
github/viromelab/tracespipe
github/AFD-Illinois/ebhlight
github/AFD-Illinois/iharm3d
github/COINtoolbox/ActSNClass
github/COINtoolbox/DRACULA
github/COINtoolbox/CosmoPhotoz
github/MNGuenther/allesfitter
github/agree019/DarkCapPy
github/PGB-LIV/MHCVision
github/babinyurii/recan
github/sisl/POMDPStressTesting.jl
github/LINNAE-project/SFB-Annotator
github/nickfarrow/GalacticDNSMass
github/cmayer/BaitFisher-package
github/elizakempton/Exo_Transmit
github/aschafu/PSSH2
github/andr1976/HydDown
github/abelson-lab/smMIP-tools
github/morpheus-project/morpheus
github/tfwillems/HipSTR
github/danielreardon/scintools
github/marziarivi/RadioLensfit2
github/nrao/UniPOPS
github/ashleychontos/pySYD
github/carlosborca/CrystaLattE
github/labsyspharm/minerva-story
github/mswzeus/TargetNet
github/hsso/crete
github/nialov/fractopo
github/alastair-droop/fqtools
github/sncosmo/sncosmo
github/deepskies/deeplenstronomy
github/STEllAR-GROUP/hpx
github/STEllAR-GROUP/octotiger
github/Planet-AI-GmbH/tfaip
github/chfeder/turbulence_generator
github/zonca/python-qucs
github/zonca/dst
github/jmejia8/Metaheuristics.jl
github/ADThomas-astro/oxaf
github/Acellera/htmd
github/jpcoles/mosaic
github/jpcoles/glass
github/jts/nanopolish
github/jts/sga
github/BenMql/coral
github/kimpenn/VERSE
github/kundajelab/phantompeakqualtools
github/brainets/frites
github/BioinfoUNIBA/REDItools2
github/jkrogager/VoigtFit
github/JCGonzS/mechnetor
github/eldariont/svim
github/eweitz/ideogram
github/ranocha/SummationByPartsOperators.jl
github/joergbuchwald/joss_ogs6py_VTUinterface
github/blackrim/phyutility
github/mirnylab/pairtools
github/mirnylab/cooler
github/reggiebernardo/PTAfast
github/zhanglabtools/CASAVA
github/ukoethe/vigra
github/freesurfer/freesurfer
github/abs-tudelft/variant-calling-at-scale
github/CFSAN-Biostatistics/SeroTools
github/roban/CosmoloPy
github/watts-dev/watts
github/davi-rodrigues/NAVanalysis
github/ernewton/tellrv
github/rvaser/bioparser
github/rvaser/spoa
github/rvaser/sword
github/rvaser/thread_pool
github/rvaser/rampler
github/binzhulab/SUITOR
github/kathlandgren/SWAMPE
github/chrishales/pieflag
github/henrikju/resolve
github/Yingjie4Science/SDGdetector
github/vidakris/flatwrm
github/Qiskit/qiskit-experiments
github/Qiskit/rustworkx
github/EISy-as-Py/hardy
github/nicolet5/DiffCapAnalyzer
github/aobr/gsf
github/paulbrodersen/netgraph
github/GRIT-RBSim/GRIT
github/medema-group/bigslice
github/egonw/bacting
github/stefanoMP/massiveGST
github/mattyowl/astLib
github/fmichel/MaDKit
github/fmichel/TurtleKit
github/ageller/firefly
github/SDXorg/pysd
github/mirochaj/ares
github/mirochaj/sedop
github/Samreay/Marz
github/Samreay/Barry
github/Samreay/ChainConsumer
github/piernik-dev/piernik
github/biofold/PhD-SNPg
github/biofold/ddgun
github/NMBU-Data-Science/RENT
github/GilbertLabUCSF/CanDI
github/Single-Cell-Graph-Learning/scSGL
github/SofieVG/FlowSOM
github/rksyouyou/SASOM-analysis
github/prmunday/Immunolyser
github/SWE-UniStuttgart/Qlunc
github/ComtekAdvancedStructures/cmstatr
github/FlowModelingControl/flowtorch
github/lgrcia/prose
github/silx-kit/pyFAI
github/openmm/openmm
github/shangguandong1996/FindIT2
github/JuliaPlots/Makie.jl
github/ggmichael/craterstats
github/andreasmang/claire
github/gabraham/flashpca
github/ZhenjiangFan/DAG-deepVASE
github/biocore/emperor
github/biocore/unifrac-binaries
github/biocore/deblur
github/biocore/sortmerna
github/biocore/scikit-bio
github/biocore/unifrac
github/VarStarDetect/varstardetect
github/EddyRivasLab/hmmer
github/JGCRI/ambrosia
github/JGCRI/osiris
github/JGCRI/rfasst
github/JGCRI/rmap
github/JGCRI/plutus
github/kritiyer/AngioNet
github/scrm/scrmhub.io
github/plazar/coast_guard
github/plazar/TOASTER
github/EpistasisLab/tpot
github/EpistasisLab/regens
github/desihub/fastspecfit
github/desihub/desitarget
github/joglekara/VlaPy
github/duffell/Disco
github/duffell/RT1D
github/MDAnalysis/mdanalysis
github/henrycousins/gspa
github/anmolter/XLUR
github/pyxnat/pyxnat
github/jpierel14/sntd
github/jpierel14/snsed
github/veragluscevic/dmdd
github/e-merlin/eMERLIN_CASA_pipeline
github/fpavogt/E0102-VR
github/fpavogt/fcmaker
github/secimTools/SECIMTools
github/vals/umis
github/agurvich/FIRE_studio
github/rust-bio/rust-bio-tools
github/Huang-CL/Magrathea
github/AstroChem/VISIBLE
github/dpalmasan/TRUNAJOD2.0
github/PyPSA/atlite
github/PyPSA/linopy
github/tekpinar/correlationplus
github/ucl-exoplanets/pylightcurve
github/ucl-exoplanets/TauREx3_public
github/ucl-exoplanets/ExoTETHyS
github/ucl-exoplanets/ExoGAN_public
github/ruta-k/uGMRT-pipeline
github/pyamg/pyamg
github/rychallener/ThERESA
github/matsen/pplacer
github/mdshw5/pyfaidx
github/mivp/encube
github/shenlab-sinai/ngsplot
github/skyfielders/python-skyfield
github/gwastro/pycbc
github/franpoz/SHERLOCK
github/dparkins/CosmoNest
github/pyccel/pyccel
github/rambaut/jebl2
github/exosports/transit
github/exosports/MARGE
github/exosports/BART
github/exosports/homer
github/JuliaQX/QXTools.jl
github/bbercovici/SBGAT
github/eltevo/steps
github/gem-pasteur/macsyfinder
github/barnesgroupICL/Driftfusion
github/ArneTillmann/AuDoLab
github/UAMCAntwerpen/LEADD
github/pw31/GGchem
github/fkeruzore/panco2
github/sebastian-zieba/PACMAN
github/Bahler-Lab/pyphe
github/bulik/ldsc
github/mpi4jax/mpi4jax
github/casaluca/bolometric-corrections
github/chhylp123/hifiasm
github/tum-esm/pyra
github/tbronzwaer/raptor
github/seeh/surprise
github/smith-chem-wisc/ProteaseGuru
github/ProfessorBrunner/rc3-pipeline
github/delphes/delphes
github/sahasuparna/DeMoS
github/deepsphere/deepsphere-cosmo-tf1
github/arvados/arvados
github/RaRe-Technologies/gensim
github/longfei8533/SDC
github/CliMA/EnsembleKalmanProcesses.jl
github/TomKellyGenetics/graphsim
github/sap218/jabberwocky
github/Zafiirah13/meercrab
github/chemfiles/chemfiles
github/joshuakt/Oxygen-False-Positives
github/ExoSim/ExoSimPublic
github/VU-BEAM-Lab/GENRE
github/astro-friedel/CADRE
github/valboz/VBBinaryLensing
github/zhoulinumass/ML-wPBE
github/graphnet-team/graphnet
github/taehoryu/TDEmass
github/dentalfloss1/transients-simulations
github/dolaver/calsagos
github/leishenggit/CircleBase
github/edwardoughton/itmlogic
github/xfcui/onn4arg
github/toshiyan/cmblensplus
github/dkoboldt/varscan
github/cdominik/optool
github/big-data-lab-team/spot
github/xinglunju/pyAmor
github/cconroy20/alf
github/cconroy20/fsps
github/markusbonse/applefy
github/icecube/FIRESONG
github/icecube/TauRunner
github/icecube/toise
github/HillLab/SomaticSiMu
github/gbernstein/pixmappy
github/gbernstein/gbdes
github/jollejolles/pirecorder
github/genotoul-bioinfo/dgenies
github/JetBrains-Research/spbla
github/jakevdp/wpca
github/latrop/DECA
github/arnauqb/Qwind.jl
github/arnauqb/qwind
github/JoeMcEwen/FAST-PT
github/tresoldi/ngesh
github/ppsp-team/PyNM
github/oscaribv/pyaneti
github/oscaribv/citlalicue
github/oscaribv/exotrending
github/beckrob/Photo-z-SQL
github/margudo/LSSGALPY
github/cgarraffo/StelNet
github/ogotoh/spaln
github/cpinte/mcfost
github/cpinte/pymcfost
github/cpinte/casa_cube
github/hablabx/rfast
github/damocles-code/damocles
github/travisseymour/EPICpy
github/ahmedmagds/GNUVID
github/YuLab-SMU/treeio
github/sonwell/biotools
github/sparks-baird/xtal2png
github/petigura/terra
github/MikeHeiber/Excimontec
github/iancze/PSOAP
github/iancze/DiskJockey
github/MAnalytics/opitools
github/MAnalytics/akmedoids
github/egjergo/galcem
github/parkus/ffd
github/parkus/fiducial_flare
github/parkus/scicatalog
github/firefly-cpp/NiaARM
github/aimalz/qp
github/ropensci-archive/reviewer
github/ropensci-archive/monkeylearn
github/ropensci-archive/arresteddev
github/ropensci-archive/rodev
github/geodynamics/burnman
github/szwiep/py_SBeLT
github/FEniCS/ffcx
github/FEniCS/basix
github/gogetdata/ggd-utils
github/CisnerosResearch/LICHEM
github/thomgrand/fim-python
github/jasonyangshadow/lpmx
github/leonzheng2/efficient-butterfly
github/leonzheng2/butterfly
github/torognes/vsearch
github/torognes/swarm
github/elixir-luxembourg/daisy
github/tobiasrausch/wally
github/tobiasrausch/alfred
github/tobiasrausch/lorax
github/dgbowl/yadg
github/bionlplab/GlaucomaNet
github/lucian-ilie/DELPHI
github/dixonlab/hic_breakfinder
github/RudolfCardinal/camcops
github/erling6232/imagedata
github/MesquiteProject/MesquiteCore
github/bbbbbbzhou/MDPET
github/jgagneastro/CoMover
github/bwinkel/cygrid
github/laurazara/IgIDivA
github/zooniverse/starpy
github/brandon-rhodes/python-jplephem
github/Heldenkombinat/Logodetect
github/PMBio/peer
github/PMBio/spatialde2-paper
github/jah1994/PyTorchDIA
github/richford/groupyr
github/tkerscher/blast
github/scottleedavis/googleearthtoolbox
github/AdrianA-T/cytomorph
github/elliohow/fMRI_ROI_Analysis_Tool
github/ComplexGroupInteractions/xgi
github/iobio-zjut/IPTDFold
github/cire-thk/BifacialSimu
github/wesleyburr/subMaldi
github/SouthGreenPlatform/PyRice
github/he2016012996/CABnet
github/pysal/spaghetti
github/pysal/spopt
github/pysal/pysal
github/ksahlin/strobealign
github/daler/gffutils
github/daler/pybedtools
github/sinc-lab/miRe2e
github/matthiasdemuzere/w2w
github/adithirgis/pollucheck
github/pacificbiosciences/bam2fastx
github/astro-datalab/noaosourcecatalog
github/MolMeDB/MolMeDB
github/dicompyler/dicompyler-core
github/C0PEP0D/otto
github/transientskp/lpf
github/transientskp/pyse
github/transientskp/tkp
github/lsds/Teechain
github/lsds/faasm
github/lsds/Saber
github/lsds/KungFu
github/lsds/sgx-lkl
github/lsds/LightSaber
github/lsds/Crossbow
github/lsds/Neptune
github/lsds/TaLoS
github/lsds/SEEP
github/gdrouart/MrMoose
github/lamyj/odil
github/mwoodbri/MRIdb
github/cogent3/cogent3
github/GOVS-pack/GOVS
github/monarch-initiative/loinc2hpo
github/StingraySoftware/stingray
github/StingraySoftware/HENDRICS
github/rcsb/mmtf-python
github/HalHaggard/EARL
github/matiscke/lcps
github/jimmink/argslab
github/gpertea/cdbfasta
github/gpertea/gclib
github/McPHAC/McPHAC
github/annehutter/polyspectrum
github/annehutter/grid-model
github/annehutter/astraeus
github/pmkruyen/dearscholar
github/mateidavid/nanocall
github/mateidavid/fast5
github/natashabatalha/picaso
github/natashabatalha/PandExo
github/philbull/RadioFisher
github/cnes/EleFits
github/BIC-MNI/libminc
github/tgrimes/SeqNet
github/vsquicciarini/madys
github/abs2k12/COCOA
github/staphopia/staphopia-paper
github/KVSlab/VaMPy
github/KVSlab/turtleFSI
github/DistrictDataLabs/yellowbrick
github/planck-npipe/hillipop
github/planck-npipe/lollipop
github/hydrosolutions/riversCentralAsia
github/nanakiksc/zerone
github/abacusorg/zeldovich-PLT
github/gausspy/gausspy
github/abinit/abinit
github/genostats/LowKi
github/dingyaozhang/Evitar
github/Bonfanti88/MCMCI
github/AMSSwanglab/SpecVar
github/sheneman/clearcut
github/pytoolz/toolz
github/emhuff/Balrog
github/icesat2py/icepyx
github/Starlink/starlink
github/Starlink/pal
github/Starlink/perl-Starlink-Autoastrom
github/Starlink/aspic
github/Starlink/ORAC-DR
github/Starlink/starjava
github/Starlink/hds-v5
github/FCS-analysis/multipletau
github/snugel/cas-offinder
github/teuben/QAC
github/teuben/nemo
github/teuben/DataComb
github/GalacticDynamics-Oxford/Agama
github/fakedrtom/oncogemini
github/PDB-REDO/libcifpp
github/PDB-REDO/tortoize
github/PDB-REDO/cif-tools
github/PDB-REDO/libpdb-redo
github/PDB-REDO/density-fitness
github/PDB-REDO/dssp
github/tonhingm/PHOTOe-v1
github/tidyverse/glue
github/ahoward-cf/ppmap
github/micahvista/MAMnet
github/reznik-lab/MIRTH
github/cedrus-opensource/pyxid
github/pengweixing/FACT
github/dstansby/pfsspy
github/Taywee/args
github/alexander-pastukhov/bistablehistory
github/carlosandrepaes/GaPP
github/txopen/histoc
github/ictr/covid19-outbreak-simulator
github/danxhuber/galclassify
github/danxhuber/evolstate
github/fabian-sp/GGLasso
github/tibordome/cosmic_profiles
github/odelaneau/shapeit4
github/odelaneau/GLIMPSE
github/citiususc/veryfasttree
github/citiususc/BigSeqKit
github/catherinezucker/radfil
github/tramarobin/fctSPM
github/gheald/rmclean
github/vmplacco/linemake
github/ejikeugba/serp
github/ejikeugba/gofcat
github/BitSeq/BitSeq
github/calebclass/Shiny-NanoTube
github/cinemascience/cinema_snap
github/KarrLab/de_sim
github/davidebolo1993/TRiCoLOR
github/davidebolo1993/VISOR
github/jeschaef/Graph4Med
github/arnikz/PIQMIe
github/obreschkow/dftools
github/spacetelescope/imexam
github/spacetelescope/jdaviz
github/spacetelescope/pystortion
github/spacetelescope/stsynphot_refactor
github/spacetelescope/mirage
github/spacetelescope/hst_cosmic_rays
github/spacetelescope/stsdas_stripped
github/spacetelescope/synphot_refactor
github/spacetelescope/specviz
github/spacetelescope/stginga
github/spacetelescope/specview
github/sjbeckett/localcovid19now
github/jlenain/flaapluc
github/amkram/shusher
github/semaphoreP/whereistheplanet
github/aranyics/ReDCM
github/pokynmr/ipick
github/YesselmanLab/rna_map
github/akdeniz-uzay/A-Track
github/SietzeN/glottospace
github/cheginit/HyRiver
github/lbcb-sci/graphmap2
github/lbcb-sci/racon
github/lbcb-sci/raven
github/brainglobe/bg-atlasapi
github/rae-holcomb/SpinSpotter
github/SoFiA-Admin/SoFiA-2
github/ridgelab/rampAtlas
github/ridgelab/ExtRampOnline
github/patrickfuchs/buildH
github/LTLA/basilisk
github/python-hydro/pyro2
github/qutip/qutip
github/jacobmerson/model-traits
github/pjcigan/multicolorfits
github/bjmorgan/py-sc-fermi
github/NASA-PDS/naif-pds4-bundler
github/Kambrian/HBTplus
github/cma2015/iwa-miRNA
github/UFParLab/aces4
github/yatiml/yatiml
github/NorwegianVeterinaryInstitute/ALPPACA
github/SteveMacenski/slam_toolbox
github/osallou/cassiopee-c
github/taxprofiler/taxpasta
github/BiodataAnalysisGroup/UMIc
github/BiodataAnalysisGroup/kmerAnalyzer
github/dvallesp/vortex
github/dvallesp/asohf
github/jboynyc/textnets
github/ilaudy/PIAO
github/dib-lab/dammit
github/dib-lab/sourmash
github/catboost/catboost
github/tjiangHIT/cuteSV
github/Cantera/cantera
github/Nico-Curti/rFBP
github/ECSHackWeek/impedance.py
github/cabb99/open3spn2
github/willvousden/ptemcee
github/nasa/K2CE
github/nasa/KeplerPORTs
github/nasa/simupy-flight
github/nasa/kepler-robovetter
github/nasa/prog_models
github/Michalychforever/AsPy
github/lumen-org/lumen
github/ElsevierSoftwareX/SOFTX_2020_119
github/moldyn/msmhelper
github/neuralhydrology/neuralhydrology
github/CouncilDataProject/speakerbox
github/CouncilDataProject/cookiecutter-cdp-deployment
github/rqtl/qtl2
github/dynamics-of-stellar-systems/dynamite_release
github/mggg/ecological-inference
github/esheldon/ngmix
github/blankhaar/PORTAL
github/MichelleLochner/astronomaly
github/RamanLab/iCOMIC
github/samaygarg/fuelcell
github/comprna/reorientexpress
github/comprna/SUPPA
github/mmahmoudian/sivs
github/neeravkaushal/RIDs-in-WCDs
github/MIT-STARLab/deconfuser
github/KULL-Centre/DEERpredict
github/hpc4cmb/toast
github/pydata/xarray
github/Kamuish/archi
github/auckland-cosmo/PyUltraLight
github/auckland-cosmo/defrost-mpi
github/auckland-cosmo/interp-mc
github/MrOlm/drep
github/GRChombo/GRChombo
github/brinckmann/montepython_public
github/seshnadathur/Revolver
github/siavashk/pycpd
github/wtraylor/modular_megafauna_model
github/sdrastro/NWelch
github/drzeeshanahmed/JWES-Visual
github/jgieseler/solarmach
github/Singh-Lab/DeMaSk
github/Singh-Lab/uKIN
github/linbox-team/linbox
github/fcs-analysis/PyCorrFit
github/fcs-analysis/PyScanFCS
github/R-Vessel-X/SlicerRVXLiverSegmentation
github/tikk3r/legacystamps
github/kennethcarrell/ATARRI
github/fury-gl/fury
github/dartoon/galight
github/ebachelet/pyLIMA
github/COVID-IWG/epimargin
github/rhenanbartels/hrv
github/pynucastro/pynucastro
github/vocalpy/crowsetta
github/saberyoung/haffet
github/christophmschaefer/miluphcuda
github/ParaFly/ParaFly
github/GenomicParisCentre/toulligQC
github/wiki/Install-macs2
github/julie-forman-kay-lab/SPyCi-PDB
github/Bishop-Laboratory/RLoop-QC-Meta-Analysis-Miller-2022
github/sandmanns/CopyDetective
github/freebayes/freebayes
github/tariks/peakachu
github/EpiVec/TDLM
github/ywx649999311/vizic
github/ywx649999311/EzTao
github/codemeleon/seqPanther
github/CosmoTool/ECLIPSE
github/idptools/metapredict
github/bio-ontology-research-group/deepgoplus
github/SHTOOLS/SHTOOLS
github/yyZhang14/dbEssLnc
github/SwissClinicalTrialOrganisation/secuTrialR
github/coleygroup/pyscreener
github/xcompact3d/Incompact3d
github/BGPS/distance-omnibus
github/domenico-simone/rmlst_api
github/msalibian/RBF
github/NKI-AI/direct
github/zgazak/TAP
github/cvbuchem/LavAtmos
github/valerio-marra/CalPriorSNIa
github/acbecker/hotpants
github/IndrajeetPatil/ggstatsplot
github/IndrajeetPatil/statsExpressions
github/potassco/clingo
github/lmfit/lmfit-py
github/refresh-bio/agc
github/refresh-bio/whisper
github/vwesselkamp/ernie-extension
github/daehwankimlab/hisat2
github/ChengF-Lab/AOPEDF
github/nombac/optab
github/somefunAgba/NLSIG-COVID19Lab
github/laristra/flecsph
github/ssadedin/bazam
github/bolverk/huji-rich
github/cython/cython
github/JuliaOpt/JuMP.jl
github/cameronliang/BayesVP
github/NctuICLab/PredCRP
github/IMB-Computational-Genomics-Lab/scGPS
github/ThomasEdwardRiley/xpsi-pre-transfer
github/bezuidenhoutmc/SeeKAT
github/sensein/etelemetry-client
github/sourmash-bio/sourmash
github/Julian/jsonschema
github/SchmollerLab/Cell_ACDC
github/ireis/PRF
github/lastz/lastz
github/gbouras13/plassembler
github/neuroneural/brainchop
github/jeffdaily/parasail-python
github/jeffdaily/parasail
github/amrex-astro/MAESTRO
github/amrex-astro/Castro
github/amrex-astro/Nyx
github/jiangyuts/facetclumps
github/Gabaldonlab/jloh
github/Gabaldonlab/crossmapper
github/Gabaldonlab/karyon
github/Gabaldonlab/perSVade
github/seawander/centerRadon
github/seawander/DebrisDiskFM
github/abhisrkckl/GWecc
github/IMMM-SFA/gamut
github/IMMM-SFA/tell
github/IMMM-SFA/mosartwmpy
github/ICRAR/libprofit
github/ICRAR/ProFit
github/ICRAR/shark
github/cosmo-epfl/chemiscope
github/RECETOX/RIAssigner
github/RECETOX/MSMetaEnhancer
github/imperialchem/mrd-demo
github/tiberioap/grav_waldo
github/tzhu-bio/UMI-ATAC-seq
github/networkx/networkx
github/thegenemyers/DEXTRACTOR
github/thegenemyers/DAZZ_DB
github/thegenemyers/DALIGNER
github/thegenemyers/DAMAPPER
github/sxs-collaboration/gwsurrogate
github/sxs-collaboration/spectre
github/jupyter/notebook
github/AlexanderBartholomaeus/smORFer
github/ahwkuepper/mcluster
github/vbakis/mrs
github/agsreejith/CONTROL
github/rhdtownsend/gyre
github/aasensio/sicon
github/aasensio/hazel
github/NuSpaceSim/nupyprop
github/SJTU-CGM/ivTerm
github/VBlesius/RHRT
github/nextflow-io/nextflow
github/bcjaeger/aorsf
github/Pizzuti92/MG-MAMPOSSt
github/vaexio/vaex
github/mikaelLEROY/AxionNS_RayTracing
github/bengeof/QPoweredCompound2DeNovoDrugPropMax
github/candebellavita/vkompth
github/rgmyr/corebreakout
github/cbio-astar-tools/GeneCloudOmics
github/datalad/datalad
github/ablab/TandemTools
github/ablab/nerpa
github/clauswilke/PeptideBuilder
github/jw-lin/lightbeam
github/biocircuits/bioscrape
github/AngryMaciek/hypercomplex
github/dankelley/oce
github/PyDL/cat-puma
github/tcherninceline/PPInteractions
github/SNEWS2/snewpy
github/CarlosCoba/XookSuut-code
github/StephenJHardy/SL1M
github/RosettaCommons/RFDesign
github/RosettaCommons/RoseTTAFold
github/tylunel/pvpumpingsystem
github/iomega/zenodo-upload
github/iomega/paired-data-form
github/iomega/spec2vec
github/agreenbaum/ImPlaneIA
github/agreenbaum/gsgs
github/bethgelab/foolbox
github/rikenbit/iTensor
github/rikenbit/nnTensor
github/benmontet/f3
github/avigan/SPHERE
github/avigan/pyZELDA
github/erf-model/ERF
github/dellytools/delly
github/dellytools/sansa
github/copasi/COPASI
github/GeneDx/scramble
github/tumcms/Open-Infra-Platform
github/ismael-mendoza/ShapeMeasurementFisherFormalism
github/maxmahlke/ssos
github/fred3m/toyz
github/montilab/nf-gwas-pipeline
github/LeandroOrdonez/explora-vr-dash-client
github/oliveirara/polyMV
github/dipangwvu/SPEGID
github/Trovemaster/Duo
github/Trovemaster/exocross
github/Trovemaster/TROVE
github/Hegghammer/daiR
github/wadpac/GGIR
github/perfanalytics/pose2sim
github/SterlingYM/astroPIPS
github/Nic5472K/ScientificData2021_HealthGym
github/Dfam-consortium/RepeatModeler
github/CrowdTruth/CrowdTruth
github/jiffyclub/palettable
github/stammler/simframe
github/stammler/dustpy
github/cmateu/PyMGC3
github/cmateu/galstreams
github/icbm-iupui/STAFF
github/eggnogdb/eggnog-mapper
github/mithun218/GiNaCDE
github/tanner-trickle/EXCEED-DM
github/jdeast/EXOFASTv2
github/pkugyf/MST
github/chenjj2/forecaster
github/atmos-cloud-sim-uj/PyMPDATA
github/atmos-cloud-sim-uj/PySDM
github/davek44/Glimmer-MG
github/ccsosa/GOCompare
github/N-BodyShop/smooth
github/dpseidel/stmove
github/JorenSix/Olaf
github/JorenSix/Panako
github/ucberkeleyseti/turbo_seti
github/ucberkeleyseti/blimpy
github/ml-evs/matador
github/alejandrobll/py-sphviewer
github/gasparl/possa
github/BarquistLab/mason_paper
github/samb8s/PsrPopPy
github/openscm/openscm-twolayermodel
github/DrafProject/elmada
github/jjmccollum/teiphy
github/prashjet/popkinmocks
github/toros-astro/corral
github/toros-astro/astroalign-legacy
github/nlesc-nano/swan
github/nlesc-nano/flamingo
github/nlesc-nano/insilico-server
github/nlesc-nano/ceiba-cli
github/nlesc-nano/ceiba
github/nlesc-nano/CAT
github/nlesc-nano/Moka
github/BMILAB/scLINE
github/ChrisBeaumont/brut
github/djones1040/PythonPhot
github/jpmens/jo
github/hetalang/heta-compiler
github/lczech/gappa
github/dfm/celerite
github/dfm/corner.py
github/dfm/photodynam
github/dfm/exopop
github/dfm/ketu
github/hall-lab/bamkit
github/hall-lab/speedseq
github/JixingGE/GGCHEMPY
github/ElectionDataAnalysis/electiondata
github/spack/spack
github/signaturescience/skater
github/ivadomed/ivadomed
github/uw-comphys/opencmp
github/anwarbio/bioassays
github/PaulSt/NGSTrefftz
github/potree/PotreeConverter
github/LucyMcGowan/tipr
github/kushaltirumala/WaldoInSky
github/mpievolbio-scicomp/cancer_sim
github/Stuermer/EchelleSimulator
github/nboley/idr
github/grburgess/popsynth
github/grburgess/ronswanson
github/Robaina/Pynteny
github/amerand/CANDID
github/amerand/PMOIRED
github/amerand/SPIPS
github/jradavenport/TheHammer
github/jradavenport/appaloosa
github/jradavenport/FBEYE
github/lofar-astron/RMextract
github/lofar-astron/DP3
github/Kingsford-Group/scallop
github/sjvrijn/mf2
github/biosimulations/Biosimulations
github/pybamm-team/liionpack
github/pybamm-team/PyBaMM
github/bpairet/mayo_hci
github/stedolan/jq
github/michaeltouati/ESVM
github/pencil-code/pencil-code
github/0x0f0f0f/Metatheory.jl
github/MonashSmartStructures/ospgrillage
github/cespinosa/pyHIIexplorerV2
github/ParisAstronomicalDataCentre/OPUS
github/xavierdidelot/ClonalFrameML
github/xavierdidelot/clonalorigin
github/mlares/hearsay
github/valeriabonapersona/repair
github/csb5/lofreq
github/pyomeca/ezc3d
github/pyomeca/biorbd
github/pyomeca/biosiglive
github/roualdes/bridgestan
github/kblin/ncbi-acc-download
github/jeffcsauer/arcos_arcospy_information
github/Krona/wiki
github/JuliaManifolds/Manopt.jl
github/hyperopt/hyperopt
github/pachterlab/kallisto
github/ipython/ipython
github/james-m-osborn/astrosat
github/trinotate/trinotatehub.io
github/wilkelab/Opfi
github/afarahi/kllr
github/afarahi/PoPE
github/afarahi/tatter
github/arjunsavel/SImMER
github/lomereiter/sambamba
github/jorisparet/partycls
github/bmorris3/aesop
github/bmorris3/fleck
github/s-goldman/Dusty-Evolved-Star-Kit
github/GalSim-developers/GalSim
github/mtholder/ncl
github/annacrnn/rebound_fragmentation
github/niceume/datasailr
github/cmbant/getdist
github/UM-PEPL/HallThruster.jl
github/pyFFTW/pyFFTW
github/yjx1217/RecombineX
github/vcflib/vcflib
github/vcflib/bio-vcf
github/riogroup/SORA
github/PedroBarbosa/VETA
github/nebblu/ReACT
github/feature-engine/feature_engine
github/JohannesBuchner/nway
github/JohannesBuchner/PyMultiNest
github/JohannesBuchner/UltraNest
github/JohannesBuchner/BXA
github/mjacob1002/Eir
github/jdiasn/lidarSuit
github/AWehrhahn/SME
github/expressionanalysis/ea-utils
github/PolyChord/PolyChordLite
github/FZJ-PGI-12/QAOA.jl
github/gear-genomics/tracy
github/nliulab/HRnV-Calc
github/ajwheeler/korg.jl
github/UK-Digital-Heart-Project/4Dsegment
github/UK-Digital-Heart-Project/4Dsurvival
github/chianti-atomic/ChiantiPy
github/venkateshgopinath/FAlCon-DNS
github/yrjia1015/CRISPRCasStack
github/sapearson/HSS
github/eucp-project/storyboards
github/eucp-project/atlas
github/jmd-dk/concept
github/ORNL/tx2
github/1313e/CMasher
github/1313e/PRISM
github/TeamLEGWORK/LEGWORK
github/drphilmarshall/Pangloss
github/drphilmarshall/HumVI
github/pierfied/karmma
github/shandley/hecatomb
github/mtakahiro/gsf
github/markheckmann/OpenRepGrid.ic
github/astroboylrx/PLAN
github/astroboylrx/Rubble
github/n8thangreen/BCEA
github/alex-b-davis/gubas
github/nevrome/bleiglas
github/regonzar/paravt
github/jonas/tig
github/wonderful1/CNV-PG
github/genner-lab/meta-fish-lib
github/cbirdferrer/collatrix
github/jfalconbarroso/BAYES-LOSVD
github/tomlouden/spiderman
github/esquivas/guacho
github/Illumina/strelka
github/Illumina/manta
github/Illumina/akt
github/Illumina/SpliceAI
[...]
github/tripathi/Atmospheric-Athena
github/ialopezt/GalLenspy
github/amkozlov/raxml-ng
github/hope-data-science/tidyfst
github/wajidarshad/ESIDE
github/szpiech/selscan
github/ggobi/ggobi
github/SYalouz/QuantNBody
github/MICCoM/SSAGES-public
github/alexfields/ORF-RATER
github/BIMSBbioinfo/pigx_scrnaseq
github/BIMSBbioinfo/pigx_rnaseq
github/jluastro/PopSyCLE
github/ejsafron/SATCHEL
github/justincfeng/PoMiN
github/bbuchfink/diamond
github/epfl-radio-astro/LiSA
github/epfl-radio-astro/PINION
github/COSMIC-PopSynth/COSMIC
github/asgr/celestial
github/asgr/ProFuse
github/asgr/NFWdist
github/asgr/ProFound
github/asgr/hyper.fit
github/asgr/ProSpect
github/CMakePP/CMinx
github/FastMLC/fMLC
github/christinahedges/contaminante
github/ptiede/Comrade.jl
github/devries/analytic_infall
github/wathela/FIRST-CLASSIFIER
github/atchekho/harmpi
github/tofflemire/saphires
github/alexander-mead/HMcode
github/alexander-mead/collapse
github/alexander-mead/pyhalomodel
github/LCOGT/banzai
github/LCOGT/banzai-nres
github/ctSkennerton/minced
github/ctSkennerton/crass
github/obertscheiderfhwn/RTMsim
github/cnsetzer/kilopop
github/fermisurfaces/IFermi
github/SebOliver/PCA
github/HadrienG/InSilicoSeq
github/siriobelli/flame
github/multiply-org/sar-pre-processing
github/intelligent-soft-robots/o80
github/zhangjunpeng411/SCOM
github/steven-murray/mrpy
github/steven-murray/pydftools
github/steven-murray/powerbox
github/jtschindler/sculptor
github/UcarLab/AMULET
github/jtksai/PyCOOL
github/IFB-ElixirFr/edam-browser
github/wmalab/EnHiC
github/shilpagarg/WHdenovo
github/fzagaria/COpops
github/domschrei/mallob
github/BGI-Qingdao/TGS-GapCloser
github/Varnani/pywd2015-qt5
github/e-mental-health/data-processing
github/e-mental-health/orange-hackathon
github/astro-informatics/sleplet
github/astro-informatics/s2
github/astro-informatics/flaglet-archive
github/astro-informatics/comb
github/astro-informatics/RequiSim
github/astro-informatics/s2let
github/astro-informatics/flag-archive
github/astro-informatics/massmappy
github/astro-informatics/ssht
github/astro-informatics/DarkMappy
github/yangao07/abPOA
github/yangao07/TideHunter
github/s4hts/HTStream
github/segasai/q3c
github/segasai/rvspecfit
github/bcgsc/btllib
github/bcgsc/arcs
github/bcgsc/goldrush
github/bcgsc/tigmint
github/bcgsc/NanoSim
github/bcgsc/ntHash
github/bcgsc/longstitch
github/bcgsc/TMBur
github/bcgsc/abyss
github/bcgsc/ntCard
github/mgckind/SparsePz
github/mgckind/easyaccess
github/ahcm/ffindex
github/devsim/devsim
github/huchiayu/ParticleGridMapper.jl
github/szhorvat/IGraphM
github/kkrismer/scansite4
github/panoptes/POCS
github/GabrielNakamura/FishPhyloMaker
github/ParkvilleData/MetaGenePipe
github/ekg/fastahack
github/ekg/seqwish
github/ekg/freebayes
github/ekg/tabixpp
github/ekg/smithwaterman
github/AnitaPetzler/AMOEBA
github/alesantuz/musclesyneRgies
github/cwieder/py-ssPA
github/plumed/plumed2
github/Libsharp/libsharp
github/bthorne93/PySM_public
github/DrSoulain/PREVIS
github/syasini/AstroPaint
github/kircherlab/ReMM
github/cdw9bf/CompactGroup
github/bwengals/CCSNMultivar
github/adriancorrendo/metrica
github/rpoleski/MulensModel
github/matvii/ADAM
github/rcarragh/c212
github/bareid/cosmoxi2d
github/WMD-group/MacroDensity
github/WMD-group/StarryNight
github/WMD-group/hybrid-perovskites
github/WMD-group/Eris
github/WMD-group/CarrierCapture.jl
github/WMD-group/SMACT
github/pmlmodelling/nctoolkit
github/QuaCaTeam/quaca
github/MichaelCretignier/Rassine_public
github/OttoStruve/muler
github/HCGB-IGTP/spaTyper
github/HCGB-IGTP/XICRA
github/conda-forge/conda-smithy
github/nvalimak/fsm-lite
github/tholoien/empiriciSN
github/tholoien/XDGMM
github/recipy/recipy
github/pennucci/PulsePortraiture
github/kim554/wdec
github/pynbody/tangos
github/pynbody/genetIC
github/pynbody/pynbody
github/dondi/GRNsight
github/imcgreer/simqso
github/bramvandijk88/cacatoo
github/seqan/lara
github/seqan/flexbar
github/seqan/lambda
github/BorgwardtLab/simbsig
github/mwvgroup/pwv_kpno
github/astropy/astroplan
github/astropy/halotools
github/astropy/SPISEA
github/astropy/astroquery
github/astropy/specutils
github/astropy/ccdproc
github/astropy/astroscrappy
github/astropy/astropy
github/egstrom/cluster-in-a-box
github/xmuyulab/DreamDIA-XMBD
github/zenitani/OpenMHD
github/prdm0/ropenblas
github/votca/xtp
github/rajeshmondal18/FoF-Halo-finder
github/rajeshmondal18/ReionYuga
github/rajeshmondal18/DviSukta
github/rajeshmondal18/MAPS
github/rajeshmondal18/N-body
github/trevisanj/PFANT
github/mzechmeister/viper
github/mzechmeister/serval
github/nye17/javelin
github/RitchieLab/hudson
github/uwssg/APS
github/galizia-lab/pyview
github/NCAS-CMS/cfdm
github/lnasellentin/DALI
github/jmschrei/pomegranate
github/mengaldo/PySPOD
github/RBrearton/islatu
github/snystrom/memes
github/cagrikymk/JAX-ReaxFF
github/gokalpcelik/ROHMMCLI
github/biboyd/SALSA
github/eEcoLiDAR/Laserfarm
github/eEcoLiDAR/laserchicken
github/fjprichard/PyAFBF
github/schochastics/signnet
github/schochastics/graphlayouts
github/schochastics/netrankr
github/sethspjohnso/satmc
github/HUST-NingKang-Lab/ONN4MST
github/aberer/RogueNaRok
github/freqtrade/freqtrade
github/BaroudLab/Griottes
github/SCECcode/pycsep
github/RWTH-EBC/AixCaliBuHA
github/pmelchior/skymapper
github/pmelchior/skylens
github/pmelchior/scarlet
github/pmelchior/spender
github/pmelchior/shear-stacking
github/pmelchior/des-exp-checker
github/pmelchior/shapelens
github/pmelchior/epsnoise
github/pmelchior/pyGMMis
github/brentp/vcfanno
github/brentp/gsort
github/brentp/smoove
github/brentp/goleft
github/brentp/cyvcf2
github/brentp/somalier
github/brentp/mosdepth
github/brentp/hts-nim-tools
github/brentp/geneimpacts
github/brentp/cigar
github/brentp/kexpr-nim
github/brentp/nim-lapper
github/brentp/peddy
github/idaholab/moose
github/pcingola/SnpEff
github/amiralih/MembraneAnalysis.jl
github/SPARC-FAIR-Codeathon/aqua
github/captain-exoplanet/misttborn
github/antoinediez/Sisyphe
github/vishwas1984/LaplaceInterpolation.jl
github/klevis-a/kinematics-vis
github/MannLabs/alphapept
github/iAART/aart
github/mbonav/Exo_DMC
github/YinanZhao21/SOAP_GPU
github/FePhyFoFum/phyx
github/IftachSadeh/ANNZ
github/CTU-Bern/presize
github/bedops/bedops
github/jmhuie/Slicer-SegmentGeometry
github/BritishGeologicalSurvey/pyvolcans
github/EMResearch/EvoMaster
github/ronnyerrmann/HiFLEx
github/bio-tools/biotoolsSum
github/HLasse/TextDescriptives
github/phineasng/DECODE
github/parthenon-hpc-lab/parthenon
github/carronj/lenspyx
github/carronj/plancklens
github/openjournals/joss
github/HEML/HEML
github/ttgump/scDeepCluster_pytorch
github/ttgump/scDHMap
github/FluidityProject/fluidity
github/SpaceOdyssey/Blobby3D
github/tronsgaard/barycorr
github/raddleverse/MimiBRICK.jl
github/aprsa/ebai
github/aprsa/dips
github/DynaSlum/satsense
github/intake/intake
github/fairdataihub/SPARClink
github/MichielCottaar/velbin
github/nlppln/nlppln
github/dusanmarceta/Synthetic-Population-of-Interstellar-Objects
github/dusanmarceta/Synthetic-Population-of-Interstellar-Obejcts
github/tyo-nu/MINE-app
github/actris-cloudnet/cloudnetpy
github/IanevskiAleksandr/sc-type
github/JakobBD/pounce
github/emunte/vaRHC
github/soylentdeen/MoogStokes
github/soylentdeen/CounterPoint
github/opencobra/cobrapy
github/VChristiaens/special
github/lifs-tools/jmzTab-m
github/sjteresi/TE_Density
github/genome/bam-readcount
github/genome/somatic-sniper
github/Extraweich/homopy
github/parmoo/parmoo
github/danielacarrasco/GLACiAR
github/ycwu1030/EvoEMD
github/ZhaoXM-Lab/metaMIC
github/fruzsinaagocs/oscode
github/hposborn/MonoTools
github/saezlab/PHONEMeS
github/ConnorDonegan/geostan
github/liulizhi1996/HPODNets
github/sanger-pathogens/snp-sites
github/sanger-pathogens/Fastaq
github/sanger-pathogens/assembly-stats
github/sanger-pathogens/Artemis
github/sanger-pathogens/Roary
github/sanger-pathogens/circlator
github/sanger-pathogens/iva
github/sanger-pathogens/gubbins
github/sanger-pathogens/Bio-Tradis
github/sanger-pathogens/ariba
github/sanger-pathogens/pymummer
github/BjoernBiltzinger/pyspi
github/m-a-d-n-e-s-s/madness
github/guynir42/radon
github/beebdev/HARU
github/AndreNicolasChene/DRAGRACES
github/kylemede/ExoSOFT
github/mmore500/hstrat
github/ProSolo/prosolo
github/Ajstros/pyripherals
github/nkhorshid/simab
github/EmmanuelSchaan/ThumbStack
github/EmmanuelSchaan/LaSSI
github/EmmanuelSchaan/HaloGen
github/EmmanuelSchaan/LensQuEst
github/mlipatov/paint_atmospheres
github/cosimoNigro/agnpy
github/MehrnooshTahani/MappingBLOS_MolecularClouds
github/equib/pyEQUIB
github/equib/equib
github/aroffringa/aartfaac2ms
github/andyphilips/dynamac
github/YSOVAR/YSOVAR
github/hera-team/librarian
github/beagle-dev/beagle-lib
github/statsmodels/statsmodels
github/ijuric/MAPS
github/UBC-Astrophysics/kd-match
github/nivha/three_body_integration
github/sambit-giri/tools21cm
github/FergusDonnan/PAHDecomp
github/FergusDonnan/PyROA
github/FergusDonnan/Running-Optimal-Average
github/YangLab/CIRCexplorer2
github/YangLab/RNAlight
github/jadexter/grtrans
github/rsnemmen/BCES
github/zpliulab/GENELink
github/connor-lab/vapor
github/Electrostatics/apbs
github/CavendishAstrophysics/anmap
github/CavendishAstrophysics/postmortem
github/tatekawa-astron/PN
github/tatekawa-astron/3LPT-init
github/magnusmanske/snpomatic
github/GregoryFaust/samblaster
github/GregoryFaust/yaha
github/ImproPhoto/pymicmac
github/luntergroup/octopus
github/MillionConcepts/lhorizon
github/yhoogstrate/fastafs
github/francescoa97outlook/pyExoRaMa
github/sunpy/sunpy
github/vallis/libstempo
github/vallis/mc3pta
github/hsocasnavarro/NICOLE
github/snfactory/binaryoffset
github/alejostark/phase_space_cosmo_fisher
github/Balaje/iceFem
github/birnstiel/two-pop-py
github/EigenDev/simbi
github/PetervanLunteren/EcoAssist
github/linsalrob/PhiSpy
github/xoopR/set6
github/farhanferoz/SkyNet
github/farhanferoz/BAMBI
github/farhanferoz/MultiNest
github/hpparvi/MuSCAT2_transit_pipeline
github/hpparvi/opents
github/hpparvi/ldtk
github/hpparvi/PyTransit
github/user29A/JPFITS
github/user29A/fastrometry
github/user29A/CCDLAB
github/tpospisi/nnkcde
github/tpospisi/RFCDE
github/tpospisi/cdetools
github/nhcrisp/ADBSat
github/cbrueffer/tophat-recondition
github/GEUS-Glaciology-and-Climate/pypromice
github/jodyphelan/TBProfiler
github/telegraphic/fits2hdf
github/telegraphic/pygsm
github/samconnolly/DELightcurveSimulation
github/octapps/octapps
github/pikarpov-LANL/Sapsan
github/arhstevens/DarkSage
github/coljac/sensie
github/FreBio/komics
github/BU-hammerTeam/PyHammer
github/RemoteSensingTools/vSmartMOM.jl
github/elizabethnewman/hessQuik
github/stan-dev/stan
github/twinl/website
github/vsoch/gridtest
github/vsoch/citelang
github/maize-genetics/rTASSEL
github/DReichLab/EIG
github/wanpinglee/MOSAIK
github/pec27/lizard
github/pec27/hfof
github/pec27/smerfs
github/mathworks/Simscape-Medical-Ventilator
github/etal/cnvkit
github/nlesc-sherlock/emma
github/nlesc-sherlock/Rig
github/ecological-cities/home2park
github/aewallin/allantools
github/ltlancas/walter
github/SuperKogito/spafe
github/raspishake/rsudp
github/justinmathias/isocalcR
github/rmjarvis/TreeCorr
github/rmjarvis/Piff
github/VirtualPlantLab/PlantSimEngine.jl
github/rice-solar-physics/EBTEL
github/lzkelley/kalepy
github/relipmoc/skewer
github/JLBLine/WODEN
github/JLBLine/PUMA
github/twosixlabs/magicwand-datatool
github/jnktsj/DNApi
github/biomed-AI/GraphBepi
github/TNOCS/csWeb
github/dhubber/seren
github/gtonkinhill/fastbaps
github/YosefLab/scvi-tools
github/STAR-Fusion/STAR-Fusion
github/nand1155/CausNet
github/MelanieKahl/MechAnalyze
github/ERA-URBAN/fm128_radar
github/ERA-URBAN/netcdf2littler
github/iraf-community/iraf
github/iraf-community/pyraf
github/calboo/TAWAS
github/calboo/wigglewave
github/calboo/Potential_Field_Calculator
github/coolneighbors/unwise-verse
github/JASHunt/Snapdragons
github/paumard/cubefit
github/RomainFeron/mwga-utils
github/difuture-lmu/dsBinVal
github/achael/eht-imaging
github/saltastro/pyhrs
github/blackjax-devs/blackjax
github/Crompulence/cpl-library
github/dbuscher/pois
github/bluesky/bluesky
github/sagepublishing/rejected_article_tracker_pkg
github/editeodoro/Bbarolo
github/ledatelescope/bifrost
github/paulmorio/gincco
github/cicirello/Chips-n-Salsa
github/cicirello/rho-mu
github/danielkoll/tidally-locked-coordinates
github/danielkoll/PyRADS
github/SIOSlab/exodetbox
github/andizq/sf3dmodels
github/winni2k/abeona
github/nf-core/viralrecon
github/nf-core/mag
github/nf-core/sarek
github/AlexandrosAntoniadis/ODUSSEAS
github/luxsrc/gray
github/Liltsliverfish/A-time-series-reconstruction-method-of-massive-astronomical-catalogues-based-on-Spark
github/citation-file-format/cffconvert-github-action
github/citation-file-format/cff-initializer-javascript
github/citation-file-format/cff-converter-python
github/citation-file-format/citation-file-format
github/starkit/wsynphot
github/gnave/Xgremlin
github/gnave/pybranch
github/EdanRein/pyPplusS
github/linuxscout/pyarabic
github/TrackerControl/tracker-control-android
github/mentatpsi/OSGenome
github/shikhar249/OnionMHC
github/jpober/21cmSense
github/michaelhb/superplot
github/ropenscilabs/allcontributors
github/ropenscilabs/gendercoder
github/ropenscilabs/r2readthedocs
github/ropenscilabs/qcoder
github/arcaldwell49/SimplyAgree
github/desmid/mview
github/alexriss/SpmImageTycoon.jl
github/j-erler/pymf
github/moranegg/deposit-template
github/moranegg/AffectationRO
github/chainsawriot/sweater
github/chainsawriot/oolong
github/epic-astronomy/EPIC
github/wbalmer/backtrack
github/AshleySpindler/AstroVaDEr-Public
github/vgl-hub/gfastats
github/davemlz/eemont
github/micbia/SubgridClumping
github/aakepley/autobox
github/jgrembi/riskCommunicator
github/cjneely10/EukMetaSanity
github/AnantharamanLab/vRhyme
github/DidierMurilloF/FielDHub
github/palaimon/ipyannotator
github/qtltools/qtltools
github/Crick-CancerGenomics/ascat
github/sebhaan/geobo
github/Starfish-develop/Starfish
github/mh-skjelvareid/synaptus
github/VincentAlcazer/StatAid
github/erikbern/ann-benchmarks
github/B-UMMI/chewBBACA
github/yuhuan-wu/mobilesal
github/CGATOxford/UMI-tools
github/weiliu123/PCLassoReg
github/exciting/excitingtools
github/gxiaolab/scAllele
github/pennsignals/chime
github/timchurches/NetEpi-Analysis
github/timchurches/NetEpi-Collection
github/takfung/ResDisMapper
github/finagle29/DBSP_DRP
github/nextgenusfs/amptk
github/nextgenusfs/funannotate
github/JeffLCoughlin/skye
github/JeffLCoughlin/EphemMatch
github/cosmicrays/hermes
github/cosmicrays/DRAGON
github/jbattat/pep_core
github/simonsobs/pixell
github/simonsobs/so_noise_models
github/simonsobs/mnms
github/ChenYangyao/hipp
github/bd-j/prospector
github/bd-j/sedpy
github/jobovy/extreme-deconvolution
github/jobovy/stream-stream
github/jobovy/streamgap-pepper
github/jobovy/simple-m2m
github/jobovy/apogee
github/jobovy/segueSelect
github/jobovy/galpy
github/cschreib/egg
github/nigyta/dfast_core
github/mathjax/MathJax
github/lukapecnik/NiaAML
github/chanzuckerberg/cellxgene
github/chanzuckerberg/idseq-dag
github/chanzuckerberg/shasta
github/zkdtc/MLC_ELGs
github/EliabCanul/nauyaca
github/mad-lab-fau/tpcp
github/mad-lab-fau/imucal
github/daeken/Emokit
github/ntveem/sterile-dm
github/AgrDataSci/climatrends
github/JuliaDiff/ForwardDiff.jl
github/storyofthewolf/ExoRT
github/storyofthewolf/ExoCAM
github/FlorianThibord/OptimiR
github/hfarias/mask_galaxy
github/ropensci-review-tools/roreviewapi
github/ropensci-review-tools/autotest
github/ropensci-review-tools/srr
github/ropensci-review-tools/pkgcheck
github/ropensci-review-tools/pkgstats
github/Dylan-Aliberti/Kepler-Collisions
github/samhforbes/PupillometryR
github/abrupt-climate/hyper-canny
github/natelust/least_asymmetry
github/gpantel/MolPainter
github/jdber1/opendrop
github/caselawanalytics/CaseLawAnalytics
github/COMBINE-lab/RapMap
github/COMBINE-lab/cuttlefish
github/COMBINE-lab/salmon
github/COMBINE-lab/terminus
github/COMBINE-lab/pufferfish
github/COMBINE-lab/alevin-fry
github/COMBINE-lab/simpleaf
github/COMBINE-lab/libgff
github/adrn/pyia
github/adrn/SuperFreq
github/adrn/schwimmbad
github/ryneches/SuchTree
github/adbar/htmldate
github/OnroerendErfgoed/atramhasis
github/ot483/NetCom
github/myrafproject/myrafproject
github/enveda/RPath
github/TeamCOMPAS/COMPAS
github/jorittmo/singcar
github/ifilot/edp
github/euroargodev/argopy
github/maserlib/ExPRES
github/legolason/PyQSOFit
github/openmopac/MOPAC
github/lazzati-astro/MCRaT
github/krab1k/ChargeFW2
github/cblakeastro/intensitypower
github/V-Bernal/GeneNetTools
github/BradGreig/21CMMC
github/andersdot/photoParallax
github/pypeit/PypeIt
github/marcelm/tinyalign
github/marcelm/dnaio
github/marcelm/cutadapt
github/marcelm/alignlib
github/SamDuffield/bmm
github/altjerue/paramo
github/franciscovillaescusa/Pylians
github/ranieremenezes/easyFermi
github/noraeisner/LATTE
github/tanhevg/GpABC.jl
github/secastel/phaser
github/AlgoLab/shark
github/BDI-pathogens/OpenABM-Covid19-model-paper
github/TingMAC/FrMLNet
github/ckarako/RRATtrap
github/ajohnson-uoregon/llvm-project
github/tcollett/LensPop
github/marius311/cosmoslik
github/marius311/pypico
github/Jonathanfreundlich/CuspCore
github/optuna/optuna
github/vibbits/phyd3
github/Zilong-Li/PCAone
github/gourabghoshroy/MPVNN
github/danielhuson/dendroscope3
github/danielhuson/jloda
github/danielhuson/malt
github/danielhuson/megan-ce
github/mourisl/Lighter
github/FarnazFouladi/HashSeq_Manuscript
github/apertif/apercal
github/jolie/tquery
github/Midnighter/dependency-info
github/singularityhub/sregistry
github/singularityhub/singularity-compose
github/singularityhub/singularity-hpc
github/gramos/imagetooth
github/ajeldorado/falco-python
github/ajeldorado/falco-matlab
github/DeepMIALab/UC-NfNet
github/tseemann/snippy
github/tseemann/abricate
github/tseemann/snp-dists
github/tseemann/samclip
github/tseemann/mlst
github/tseemann/prokka
github/tseemann/VelvetOptimiser
github/tseemann/shovill
github/tseemann/barrnap
github/heliopython/heliopy
github/abschneider/StrainHub
github/insilico/cncv
github/prajwel/curvit
github/zoometh/iconr
github/barricklab/pLannotate
github/hnikaein/stark
github/csdms/bmi
github/rroyaute/h2_breeders_equation
github/FrancesBW/bellamy
github/fjankowsk/scatfit
github/rochoa85/NTDHealth_Forms
github/cas-bioinf/rboAnalyzer
github/klb2/qmkpy
github/kernsuite-debian/parseltongue
github/gnudatalanguage/gdl
github/aidenlab/juicer
github/cweniger/swordfish
github/davidgardenier/frbpoppy
github/davidgardenier/frbcat
github/HengyueZ/astrofix
github/TearsWaiting/MIMML
github/samuelefiorini/tangle
github/martinsparre/XSHPipelineManager
github/masoncarney/stepped_luneburg
github/sylvainprigent/napari-tracks-reader
github/jessecambon/tidygeocoder
github/zjupgx/modig
github/INCEPTdk/adaptr
github/juliotux/astropop
github/sanjibs/bmcmc
github/Adamtaranto/Yanagiba
github/creanero/locus
github/seamusclarke/rjplots
github/damonge/CUTE
github/damonge/CoLoRe
github/damonge/schNell
github/damonge/CRIME
github/mingzehuang/latentcor
github/yatisht/usher
github/dfki-ric-underactuated-lab/torque_limited_simple_pendulum
github/PyTables/PyTables
github/mikekatz04/BOWIE
github/zhouzilu/DENDRO
github/labjg/fibmeasure
github/sciapp/sampledb
github/BioGenies/AMPBenchmark
github/tp2vis/distribute
github/cheerfuluser/tessreduce
github/utrillalab/repromin
github/nespinoza/limb-darkening
github/nespinoza/ld-exosim
github/nespinoza/mc-spam
github/nespinoza/juliet
github/nespinoza/exonailer
github/python-streamz/streamz
github/rudolffu/pyfosc
github/libgamera/GAMERA
github/siara-cc/Unishox2
github/deweylab/RSEM
github/PacificBiosciences/pbalign
github/PacificBiosciences/IsoSeq
github/PacificBiosciences/pbmm2
github/PacificBiosciences/pbcopper
github/PacificBiosciences/FALCON
github/PacificBiosciences/kineticsTools
github/PacificBiosciences/minorseq
github/PacificBiosciences/blasr
github/PacificBiosciences/pbbam
github/PacificBiosciences/pbcore
github/PacificBiosciences/pbbioconda
github/julblarod/SOPHISM
github/c-white/blacklight
github/BU-ISCIII/taranis
github/BU-ISCIII/iSkyLIMS
github/BU-ISCIII/plasmidID
github/GeminiDRSoftware/DRAGONS
github/mrbell/fsclean
github/FRED-2/OptiType
github/gromacs/gromacs